 +-------------------------------------------------+
 |                                                 |
 |      CCC   AA    SSS  TTTTT  EEEEE  PPPP        |
 |     C     A  A  S       T    E      P   P       |
 |     C     AAAA   SS     T    EEE    PPPP        |
 |     C     A  A     S    T    E      P           |
 |      CCC  A  A  SSS     T    EEEEE  P           |
 |                                                 |
 +-------------------------------------------------+
 |                                                 |
 | Welcome to Academic Release CASTEP version 5.02 |
 | Ab Initio Total Energy Program                  |
 |                                                 |
 | Authors:                                        |
 | M. Segall, M. Probert, C. Pickard, P. Hasnip,   |
 | S. Clark, K. Refson, M. Payne                   |
 |                                                 |
 | Contributors:                                   |
 | P. Lindan, P. Haynes, J. White, V. Milman,      |
 | N. Govind, M. Gibson, P. Tulip, V. Cocula,      |
 | B. Montanari, D. Quigley, M. Glover,            |
 | L. Bernasconi, A. Perlov, M. Plummer            |
 |                                                 |
 | Copyright (c) 2000 - 2009                       |
 |                                                 |
 |     Distributed under the terms of an           |
 |     Agreement between the United Kingdom        |
 |     Car-Parrinello (UKCP) Consortium,           |
 |     Daresbury Laboratory and Accelrys, Inc.     |
 |                                                 |
 | Please cite                                     |
 |                                                 |
 |     "First principles methods using CASTEP"     |
 |                                                 |
 |         Zeitschrift fuer Kristallographie       |
 |           220(5-6) pp. 567-570 (2005)           |
 |                                                 |
 | S. J. Clark, M. D. Segall, C. J. Pickard,       |
 | P. J. Hasnip, M. J. Probert, K. Refson,         |
 | M. C. Payne                                     |
 |                                                 |
 |       in all publications arising from          |
 |              your use of CASTEP                 |
 |                                                 |
 +-------------------------------------------------+
 
 
 Pseudo atomic calculation performed for O 2s2 2p4
 
 Converged in 36 iterations to a total energy of -429.6485 eV
 
 
 Pseudo atomic calculation performed for Na 2s2 2p6 3s1
 
 Converged in 33 iterations to a total energy of -1302.8467 eV
 
 
 Pseudo atomic calculation performed for Al 3s2 3p1
 
 Converged in 20 iterations to a total energy of -52.7392 eV
 
 
 Pseudo atomic calculation performed for Si 3s2 3p2
 
 Converged in 21 iterations to a total energy of -101.9044 eV
 
Calculation parallelised over   36 nodes.
K-points are distributed over    3 groups, each containing   12 nodes.

 ************************************ Title ************************************
 

 ***************************** General Parameters ******************************
  
 output verbosity                               : normal  (1)
 write checkpoint data to                       : jadeite_4_30_GPa_cij__4__5.check
 type of calculation                            : geometry optimization
 stress calculation                             : on
 density difference calculation                 : off
 electron localisation func (ELF) calculation   : off
 Hirshfeld analysis                             : off
 unlimited duration calculation
 timing information                             : on
 memory usage estimate                          : on
 write final potential to formatted file        : off
 write final density to formatted file          : off
  
 output         length unit                     : A
 output           mass unit                     : amu
 output           time unit                     : ps
 output         charge unit                     : e
 output         energy unit                     : eV
 output          force unit                     : eV/A
 output       velocity unit                     : A/ps
 output       pressure unit                     : GPa
 output     inv_length unit                     : 1/A
 output      frequency unit                     : cm-1
 output force constant unit                     : eV/A**2
 output         volume unit                     : A**3
 output   IR intensity unit                     : (D/A)**2/amu
 output         dipole unit                     : D
 output         efield unit                     : eV/A/e
  
 wavefunctions paging                           : none
 data distribution                              : optimal for this architecture
 optimization strategy                          : maximize speed(+++)

 *********************** Exchange-Correlation Parameters ***********************
  
 using functional                               : Perdew Burke Ernzerhof
 Divergence correction                          : off
 DFT+D: Semi-empirical dispersion correction    : off

 ************************* Pseudopotential Parameters **************************
  
 pseudopotential representation                 : reciprocal space
 <beta|phi> representation                      : reciprocal space

 **************************** Basis Set Parameters *****************************
  
 plane wave basis set cut-off                   :   700.0000   eV
 finite basis set correction                    : none

 **************************** Electronic Parameters ****************************
  
 number of  electrons                           :  224.0    
 net charge of system                           :  0.000    
 net spin   of system                           :  0.000    
 number of  up  spins                           :  112.0    
 number of down spins                           :  112.0    
 treating system as non-spin-polarized
 number of bands                                :        112

 ********************* Electronic Minimization Parameters **********************
  
 Method: Treating system as non-metallic,
         and number of  SD  steps               :          1
         and number of  CG  steps               :          4
  
 total energy / atom convergence tol.           : 0.1000E-07   eV
 max force / atom convergence tol.              : ignored
 convergence tolerance window                   :          3   cycles
 max. number of SCF cycles                      :        100

 *********************** Population Analysis Parameters ************************
  
 Population analysis with cutoff                :  3.000       A

 ********************** Geometry Optimization Parameters ***********************
  
 optimization method                            : BFGS
 variable cell method                           : fixed basis quality
 max. number of steps                           :        300
 estimated bulk modulus                         :  500.0       GPa
 estimated <frequency>                          :  1668.       cm-1
 line minimiser tolerance                       :     0.4000
 total energy convergence tolerance             : 0.2000E-06   eV/atom
        max ionic |force| tolerance             : 0.1000E-02   eV/A
 max ionic |displacement| tolerance             : 0.1000E-02   A
   max |stress component| tolerance             : 0.1000E-02   GPa
 convergence tolerance window                   :          2   steps
 backup results every                           :          1   steps

 *******************************************************************************
  
 
                           -------------------------------
                                      Unit Cell
                           -------------------------------
        Real Lattice(A)                      Reciprocal Lattice(1/A)
   8.9813393   0.0000000  -2.7290832        0.6995822   0.0000000   0.0000000
   0.0000000   8.5603493   0.0000000        0.0000000   0.7339870   0.0000000
   0.0000000   0.0000000   5.2199179        0.3657563   0.0000000   1.2036943
 
                       Lattice parameters(A)       Cell Angles
                    a =    9.386818          alpha =   90.000000
                    b =    8.560349          beta  =  106.902007
                    c =    5.219918          gamma =   90.000000
 
                       Current cell volume =  401.325043       A**3
 
                           -------------------------------
                                     Cell Contents
                           -------------------------------
                         Total number of ions in cell =   40
                      Total number of species in cell =    4
                        Max number of any one species =   24
 
            xxxxxxxxxxxxxxxxxxxxxxxxxxxxxxxxxxxxxxxxxxxxxxxxxxxxxxxxxxxx
            x  Element    Atom        Fractional coordinates of atoms  x
            x            Number           u          v          w      x
            x----------------------------------------------------------x
            x  O            1         0.109277   0.076953   0.129205   x
            x  O            2         0.609279   0.576951   0.129208   x
            x  O            3         0.890723   0.076953   0.370795   x
            x  O            4         0.390721   0.576951   0.370792   x
            x  O            5         0.890723   0.923047   0.870795   x
            x  O            6         0.390721   0.423048   0.870792   x
            x  O            7         0.109277   0.923047   0.629205   x
            x  O            8         0.609279   0.423048   0.629208   x
            x  O            9         0.361047   0.263746   0.295383   x
            x  O           10         0.861046   0.763747   0.295382   x
            x  O           11         0.638953   0.263746   0.204617   x
            x  O           12         0.138954   0.763747   0.204618   x
            x  O           13         0.638953   0.736253   0.704617   x
            x  O           14         0.138954   0.236253   0.704618   x
            x  O           15         0.361047   0.736253   0.795383   x
            x  O           16         0.861046   0.236253   0.795382   x
            x  O           17         0.354029   0.008469   1.005059   x
            x  O           18         0.854032   0.508466   1.005069   x
            x  O           19         0.645971   0.008469   0.494941   x
            x  O           20         0.145968   0.508466   0.494931   x
            x  O           21         0.645971   0.991531  -0.005059   x
            x  O           22         0.145968   0.491534  -0.005069   x
            x  O           23         0.354029   0.991531   0.505059   x
            x  O           24         0.854032   0.491534   0.505069   x
            x  Na           1         0.000000   0.301230   0.250000   x
            x  Na           2         0.500000   0.801235   0.250000   x
            x  Na           3         0.000000   0.698770   0.750000   x
            x  Na           4         0.500000   0.198765   0.750000   x
            x  Al           1         0.000000   0.906276   0.250000   x
            x  Al           2         0.500000   0.406276   0.250000   x
            x  Al           3         0.000000   0.093724   0.750000   x
            x  Al           4         0.500000   0.593723   0.750000   x
            x  Si           1         0.290869   0.093825   0.228100   x
            x  Si           2         0.790871   0.593824   0.228106   x
            x  Si           3         0.709131   0.093825   0.271900   x
            x  Si           4         0.209129   0.593824   0.271894   x
            x  Si           5         0.709131   0.906175   0.771900   x
            x  Si           6         0.209129   0.406176   0.771894   x
            x  Si           7         0.290869   0.906175   0.728100   x
            x  Si           8         0.790871   0.406176   0.728106   x
            xxxxxxxxxxxxxxxxxxxxxxxxxxxxxxxxxxxxxxxxxxxxxxxxxxxxxxxxxxxx
 
 
                         No user defined ionic velocities
 
                           -------------------------------
                                   Details of Species
                           -------------------------------
 
                               Mass of species in AMU
                                    O   15.9994000
                                    Na   22.9897700
                                    Al   26.9815400
                                    Si   28.0855000
 
                          Electric Quadrupole Moment (Barn)
                                    O   -0.0255800 Isotope 17
                                    Na    0.1040000 Isotope 23
                                    Al    0.1466000 Isotope 27
                                    Si    1.0000000 No Isotope Defined
 
                          Files used for pseudopotentials:
                                    O O_00PBE.usp
                                    Na Na_00PBE.usp
                                    Al Al_00PBE.usp
                                    Si Si_00PBE.usp
 
                           -------------------------------
                              k-Points For BZ Sampling
                           -------------------------------
                       MP grid size for SCF calculation is  2  2  3
                         Number of kpoints used = 3
 
             +++++++++++++++++++++++++++++++++++++++++++++++++++++++
             +  Number       Fractional coordinates        Weight  +
             +-----------------------------------------------------+
             +     1  -0.250000  -0.250000   0.333333   0.3333333  +
             +     2   0.250000   0.250000   0.000000   0.3333333  +
             +     3   0.250000   0.250000   0.333333   0.3333333  +
             +++++++++++++++++++++++++++++++++++++++++++++++++++++++
 
                           -------------------------------
                               Symmetry and Constraints
                           -------------------------------
 
                      Number of symmetry operations   = 4
                      Number of ionic constraints     = 3
                      Maximum deviation from symmetry = 0.131055E-14     ANG
               Point group of crystal =     5: C2h, 2/m, 2/m
           Set iprint > 1 for details on symmetry rotations/translations
 
                          Centre of mass is constrained
             Set iprint > 1 for details of linear ionic constraints
 
                         Number of cell constraints= 6
                         Cell constraints are:  0 0 0 0 0 0
 
                         External pressure/stress (GPa)
                          4.30000   0.00000   0.00000
                                    4.30000   0.00000
                                              4.30000
  
+---------------- MEMORY AND SCRATCH DISK ESTIMATES PER NODE -----------------+
|                                                     Memory          Disk    |
| Model and support data                               60.0 MB         0.0 MB |
| Electronic energy minimisation requirements          16.7 MB         0.0 MB |
|                                               ----------------------------- |
| Approx. total storage required per node              76.8 MB         0.0 MB |
|                                                                             |
| Requirements will fluctuate during execution and may exceed these estimates |
+-----------------------------------------------------------------------------+
------------------------------------------------------------------------ <-- SCF
SCF loop      Energy                           Energy gain       Timer   <-- SCF
                                               per atom          (sec)   <-- SCF
------------------------------------------------------------------------ <-- SCF
Initial  -1.68366890E+003                                          5.16  <-- SCF
      1  -1.65099865E+004                    3.70657940E+002      18.56  <-- SCF
      2  -1.68141595E+004                    7.60432381E+000      31.07  <-- SCF
      3  -1.68423057E+004                    7.03654578E-001      43.56  <-- SCF
      4  -1.68460056E+004                    9.24981390E-002      55.40  <-- SCF
      5  -1.68460953E+004                    2.24360016E-003      67.73  <-- SCF
      6  -1.68460966E+004                    3.09393365E-005      79.72  <-- SCF
      7  -1.68460966E+004                    7.70670482E-007      91.39  <-- SCF
      8  -1.68460966E+004                    2.44743646E-008     103.42  <-- SCF
      9  -1.68460966E+004                    7.99070750E-010     115.55  <-- SCF
     10  -1.68460966E+004                    2.59087012E-011     128.33  <-- SCF
------------------------------------------------------------------------ <-- SCF
 
Final energy =  -16846.09659190     eV
(energy not corrected for finite basis set)
 
 
Writing model to jadeite_4_30_GPa_cij__4__5.check
 
+---------------- MEMORY AND SCRATCH DISK ESTIMATES PER NODE -----------------+
|                                                     Memory          Disk    |
| Model and support data                               53.1 MB         0.0 MB |
| Geometry minimisation requirements                   19.5 MB         0.0 MB |
|                                               ----------------------------- |
| Approx. total storage required per node              72.6 MB         0.0 MB |
|                                                                             |
| Requirements will fluctuate during execution and may exceed these estimates |
+-----------------------------------------------------------------------------+
 
 
 *********************************** Forces ***********************************
 *                                                                            *
 *                        Cartesian components (eV/A)                         *
 * -------------------------------------------------------------------------- *
 *                   x                    y                    z              *
 *                                                                            *
 * O         1     -0.01212             -0.01488              0.02454         *
 * O         2     -0.01227             -0.01482              0.02450         *
 * O         3      0.01212             -0.01488             -0.02454         *
 * O         4      0.01227             -0.01482             -0.02450         *
 * O         5      0.01212              0.01488             -0.02454         *
 * O         6      0.01227              0.01482             -0.02450         *
 * O         7     -0.01212              0.01488              0.02454         *
 * O         8     -0.01227              0.01482              0.02450         *
 * O         9     -0.04290             -0.03781              0.02983         *
 * O        10     -0.04277             -0.03773              0.02984         *
 * O        11      0.04290             -0.03781             -0.02983         *
 * O        12      0.04277             -0.03773             -0.02984         *
 * O        13      0.04290              0.03781             -0.02983         *
 * O        14      0.04277              0.03773             -0.02984         *
 * O        15     -0.04290              0.03781              0.02983         *
 * O        16     -0.04277              0.03773              0.02984         *
 * O        17      0.00898             -0.10055             -0.19345         *
 * O        18      0.00892             -0.10049             -0.19350         *
 * O        19     -0.00898             -0.10055              0.19345         *
 * O        20     -0.00892             -0.10049              0.19350         *
 * O        21     -0.00898              0.10055              0.19345         *
 * O        22     -0.00892              0.10049              0.19350         *
 * O        23      0.00898              0.10055             -0.19345         *
 * O        24      0.00892              0.10049             -0.19350         *
 * Na        1      0.00000              0.02509              0.00000         *
 * Na        2      0.00000              0.02496              0.00000         *
 * Na        3      0.00000             -0.02509              0.00000         *
 * Na        4      0.00000             -0.02496              0.00000         *
 * Al        1      0.00000              0.04767              0.00000         *
 * Al        2      0.00000              0.04777              0.00000         *
 * Al        3      0.00000             -0.04767              0.00000         *
 * Al        4      0.00000             -0.04777              0.00000         *
 * Si        1     -0.01648              0.01933              0.15554         *
 * Si        2     -0.01669              0.01935              0.15552         *
 * Si        3      0.01648              0.01933             -0.15554         *
 * Si        4      0.01669              0.01935             -0.15552         *
 * Si        5      0.01648             -0.01933             -0.15554         *
 * Si        6      0.01669             -0.01935             -0.15552         *
 * Si        7     -0.01648             -0.01933              0.15554         *
 * Si        8     -0.01669             -0.01935              0.15552         *
 *                                                                            *
 ******************************************************************************
 BFGS: finished iteration     0 with enthalpy= -1.68353256E+004 eV
  
 +-----------+-----------------+-----------------+------------+-----+ <-- BFGS
 | Parameter |      value      |    tolerance    |    units   | OK? | <-- BFGS
 +-----------+-----------------+-----------------+------------+-----+ <-- BFGS
 |  dE/ion   |   0.000000E+000 |   2.000000E-007 |         eV | No  | <-- BFGS
 |  |F|max   |   2.182146E-001 |   1.000000E-003 |       eV/A | No  | <-- BFGS
 |  |dR|max  |   0.000000E+000 |   1.000000E-003 |          A | No  | <-- BFGS
 +-----------+-----------------+-----------------+------------+-----+ <-- BFGS
  

================================================================================
 Starting BFGS iteration          1 ...
================================================================================
 
Writing model to jadeite_4_30_GPa_cij__4__5.check
  
 +------------+-------------+-------------+-----------------+ <-- min BFGS
 |    Step    |   lambda    |   F.delta   |    enthalpy     | <-- min BFGS
 +------------+-------------+-------------+-----------------+ <-- min BFGS
 |  previous  |    0.000000 |    0.000112 |   -16835.325633 | <-- min BFGS
 +------------+-------------+-------------+-----------------+ <-- min BFGS
  

--------------------------------------------------------------------------------
 BFGS: starting iteration         1 with trial guess (lambda=  1.000000)
--------------------------------------------------------------------------------
 
                           -------------------------------
                                     Cell Contents
                           -------------------------------
 
            xxxxxxxxxxxxxxxxxxxxxxxxxxxxxxxxxxxxxxxxxxxxxxxxxxxxxxxxxxxx
            x  Element    Atom        Fractional coordinates of atoms  x
            x            Number           u          v          w      x
            x----------------------------------------------------------x
            x  O            1         0.109270   0.076945   0.129224   x
            x  O            2         0.609272   0.576943   0.129227   x
            x  O            3         0.890730   0.076945   0.370776   x
            x  O            4         0.390728   0.576943   0.370773   x
            x  O            5         0.890730   0.923055   0.870776   x
            x  O            6         0.390728   0.423057   0.870773   x
            x  O            7         0.109270   0.923055   0.629224   x
            x  O            8         0.609272   0.423057   0.629227   x
            x  O            9         0.361024   0.263725   0.295399   x
            x  O           10         0.861023   0.763726   0.295398   x
            x  O           11         0.638976   0.263725   0.204601   x
            x  O           12         0.138977   0.763726   0.204602   x
            x  O           13         0.638976   0.736275   0.704601   x
            x  O           14         0.138977   0.236274   0.704602   x
            x  O           15         0.361024   0.736275   0.795399   x
            x  O           16         0.861023   0.236274   0.795398   x
            x  O           17         0.354034   0.008413   1.004882   x
            x  O           18         0.854037   0.508409   1.004892   x
            x  O           19         0.645966   0.008413   0.495118   x
            x  O           20         0.145963   0.508409   0.495108   x
            x  O           21         0.645966   0.991587  -0.004882   x
            x  O           22         0.145963   0.491591  -0.004892   x
            x  O           23         0.354034   0.991587   0.504882   x
            x  O           24         0.854037   0.491591   0.504892   x
            x  Na           1         0.000000   0.301244   0.250000   x
            x  Na           2         0.500000   0.801249   0.250000   x
            x  Na           3         0.000000   0.698756   0.750000   x
            x  Na           4         0.500000   0.198751   0.750000   x
            x  Al           1         0.000000   0.906303   0.250000   x
            x  Al           2         0.500000   0.406303   0.250000   x
            x  Al           3         0.000000   0.093697   0.750000   x
            x  Al           4         0.500000   0.593697   0.750000   x
            x  Si           1         0.290860   0.093835   0.228239   x
            x  Si           2         0.790862   0.593834   0.228245   x
            x  Si           3         0.709140   0.093835   0.271761   x
            x  Si           4         0.209138   0.593834   0.271755   x
            x  Si           5         0.709140   0.906165   0.771761   x
            x  Si           6         0.209138   0.406166   0.771755   x
            x  Si           7         0.290860   0.906165   0.728239   x
            x  Si           8         0.790862   0.406166   0.728245   x
            xxxxxxxxxxxxxxxxxxxxxxxxxxxxxxxxxxxxxxxxxxxxxxxxxxxxxxxxxxxx
 
 
------------------------------------------------------------------------ <-- SCF
SCF loop      Energy                           Energy gain       Timer   <-- SCF
                                               per atom          (sec)   <-- SCF
------------------------------------------------------------------------ <-- SCF
Initial  -1.68460889E+004                                        135.01  <-- SCF
      1  -1.68460992E+004                    2.57720896E-004     147.51  <-- SCF
      2  -1.68460992E+004                    8.55290311E-008     159.92  <-- SCF
      3  -1.68460992E+004                    1.48089496E-009     171.49  <-- SCF
      4  -1.68460992E+004                    3.37199813E-011     184.32  <-- SCF
------------------------------------------------------------------------ <-- SCF
 
Final energy =  -16846.09917760     eV
(energy not corrected for finite basis set)
 
 
 *********************************** Forces ***********************************
 *                                                                            *
 *                        Cartesian components (eV/A)                         *
 * -------------------------------------------------------------------------- *
 *                   x                    y                    z              *
 *                                                                            *
 * O         1     -0.01277             -0.01392              0.02171         *
 * O         2     -0.01292             -0.01387              0.02167         *
 * O         3      0.01277             -0.01392             -0.02171         *
 * O         4      0.01292             -0.01387             -0.02167         *
 * O         5      0.01277              0.01392             -0.02171         *
 * O         6      0.01292              0.01387             -0.02167         *
 * O         7     -0.01277              0.01392              0.02171         *
 * O         8     -0.01292              0.01387              0.02167         *
 * O         9     -0.03473             -0.02299              0.02563         *
 * O        10     -0.03462             -0.02295              0.02564         *
 * O        11      0.03473             -0.02299             -0.02563         *
 * O        12      0.03462             -0.02295             -0.02564         *
 * O        13      0.03473              0.02299             -0.02563         *
 * O        14      0.03462              0.02295             -0.02564         *
 * O        15     -0.03473              0.02299              0.02563         *
 * O        16     -0.03462              0.02295              0.02564         *
 * O        17      0.00289             -0.06357             -0.13720         *
 * O        18      0.00283             -0.06351             -0.13724         *
 * O        19     -0.00289             -0.06357              0.13720         *
 * O        20     -0.00283             -0.06351              0.13724         *
 * O        21     -0.00289              0.06357              0.13720         *
 * O        22     -0.00283              0.06351              0.13724         *
 * O        23      0.00289              0.06357             -0.13720         *
 * O        24      0.00283              0.06351             -0.13724         *
 * Na        1      0.00000              0.02574              0.00000         *
 * Na        2      0.00000              0.02563              0.00000         *
 * Na        3      0.00000             -0.02574              0.00000         *
 * Na        4      0.00000             -0.02563              0.00000         *
 * Al        1      0.00000              0.04144              0.00000         *
 * Al        2      0.00000              0.04152              0.00000         *
 * Al        3      0.00000             -0.04144              0.00000         *
 * Al        4      0.00000             -0.04152              0.00000         *
 * Si        1     -0.01428              0.00579              0.10294         *
 * Si        2     -0.01444              0.00584              0.10292         *
 * Si        3      0.01428              0.00579             -0.10294         *
 * Si        4      0.01444              0.00584             -0.10292         *
 * Si        5      0.01428             -0.00579             -0.10294         *
 * Si        6      0.01444             -0.00584             -0.10292         *
 * Si        7     -0.01428             -0.00579              0.10294         *
 * Si        8     -0.01444             -0.00584              0.10292         *
 *                                                                            *
 ******************************************************************************
  
 +------------+-------------+-------------+-----------------+ <-- min BFGS
 |    Step    |   lambda    |   F.delta   |    enthalpy     | <-- min BFGS
 +------------+-------------+-------------+-----------------+ <-- min BFGS
 |  previous  |    0.000000 |    0.000112 |   -16835.325633 | <-- min BFGS
 | trial step |    1.000000 |    0.000078 |   -16835.328219 | <-- min BFGS
 +------------+-------------+-------------+-----------------+ <-- min BFGS
  

--------------------------------------------------------------------------------
 BFGS: improving iteration         1 with line minimization (lambda=  3.240904)
--------------------------------------------------------------------------------
 
                           -------------------------------
                                     Cell Contents
                           -------------------------------
 
            xxxxxxxxxxxxxxxxxxxxxxxxxxxxxxxxxxxxxxxxxxxxxxxxxxxxxxxxxxxx
            x  Element    Atom        Fractional coordinates of atoms  x
            x            Number           u          v          w      x
            x----------------------------------------------------------x
            x  O            1         0.109256   0.076926   0.129268   x
            x  O            2         0.609258   0.576924   0.129270   x
            x  O            3         0.890744   0.076926   0.370732   x
            x  O            4         0.390742   0.576924   0.370730   x
            x  O            5         0.890744   0.923074   0.870732   x
            x  O            6         0.390742   0.423076   0.870730   x
            x  O            7         0.109256   0.923074   0.629268   x
            x  O            8         0.609258   0.423076   0.629270   x
            x  O            9         0.360972   0.263677   0.295433   x
            x  O           10         0.860971   0.763678   0.295433   x
            x  O           11         0.639028   0.263677   0.204567   x
            x  O           12         0.139029   0.763678   0.204567   x
            x  O           13         0.639028   0.736323   0.704567   x
            x  O           14         0.139029   0.236322   0.704567   x
            x  O           15         0.360972   0.736323   0.795433   x
            x  O           16         0.860971   0.236322   0.795433   x
            x  O           17         0.354045   0.008285   1.004486   x
            x  O           18         0.854048   0.508282   1.004496   x
            x  O           19         0.645955   0.008285   0.495514   x
            x  O           20         0.145952   0.508282   0.495504   x
            x  O           21         0.645955   0.991715  -0.004486   x
            x  O           22         0.145952   0.491718  -0.004496   x
            x  O           23         0.354045   0.991715   0.504486   x
            x  O           24         0.854048   0.491718   0.504496   x
            x  Na           1         0.000000   0.301276   0.250000   x
            x  Na           2         0.500000   0.801280   0.250000   x
            x  Na           3         0.000000   0.698724   0.750000   x
            x  Na           4         0.500000   0.198720   0.750000   x
            x  Al           1         0.000000   0.906364   0.250000   x
            x  Al           2         0.500000   0.406364   0.250000   x
            x  Al           3         0.000000   0.093636   0.750000   x
            x  Al           4         0.500000   0.593636   0.750000   x
            x  Si           1         0.290840   0.093860   0.228552   x
            x  Si           2         0.790842   0.593859   0.228558   x
            x  Si           3         0.709160   0.093860   0.271448   x
            x  Si           4         0.209158   0.593859   0.271442   x
            x  Si           5         0.709160   0.906140   0.771448   x
            x  Si           6         0.209158   0.406141   0.771442   x
            x  Si           7         0.290840   0.906140   0.728552   x
            x  Si           8         0.790842   0.406141   0.728558   x
            xxxxxxxxxxxxxxxxxxxxxxxxxxxxxxxxxxxxxxxxxxxxxxxxxxxxxxxxxxxx
 
 
------------------------------------------------------------------------ <-- SCF
SCF loop      Energy                           Energy gain       Timer   <-- SCF
                                               per atom          (sec)   <-- SCF
------------------------------------------------------------------------ <-- SCF
Initial  -1.68460585E+004                                        189.68  <-- SCF
      1  -1.68461015E+004                    1.07590419E-003     202.00  <-- SCF
      2  -1.68461016E+004                    3.93194704E-007     213.68  <-- SCF
      3  -1.68461016E+004                    6.99875227E-009     225.71  <-- SCF
      4  -1.68461016E+004                    1.58932481E-010     238.63  <-- SCF
------------------------------------------------------------------------ <-- SCF
 
Final energy =  -16846.10155466     eV
(energy not corrected for finite basis set)
 
 
 *********************************** Forces ***********************************
 *                                                                            *
 *                        Cartesian components (eV/A)                         *
 * -------------------------------------------------------------------------- *
 *                   x                    y                    z              *
 *                                                                            *
 * O         1     -0.01419             -0.01178              0.01537         *
 * O         2     -0.01434             -0.01173              0.01534         *
 * O         3      0.01419             -0.01178             -0.01537         *
 * O         4      0.01434             -0.01173             -0.01534         *
 * O         5      0.01419              0.01178             -0.01537         *
 * O         6      0.01434              0.01173             -0.01534         *
 * O         7     -0.01419              0.01178              0.01537         *
 * O         8     -0.01434              0.01173              0.01534         *
 * O         9     -0.01645              0.01032              0.01623         *
 * O        10     -0.01641              0.01027              0.01625         *
 * O        11      0.01645              0.01032             -0.01623         *
 * O        12      0.01641              0.01027             -0.01625         *
 * O        13      0.01645             -0.01032             -0.01623         *
 * O        14      0.01641             -0.01027             -0.01625         *
 * O        15     -0.01645             -0.01032              0.01623         *
 * O        16     -0.01641             -0.01027              0.01625         *
 * O        17     -0.00971              0.01916             -0.01164         *
 * O        18     -0.00982              0.01921             -0.01168         *
 * O        19      0.00971              0.01916              0.01164         *
 * O        20      0.00982              0.01921              0.01168         *
 * O        21      0.00971             -0.01916              0.01164         *
 * O        22      0.00982             -0.01921              0.01168         *
 * O        23     -0.00971             -0.01916             -0.01164         *
 * O        24     -0.00982             -0.01921             -0.01168         *
 * Na        1      0.00000              0.02722              0.00000         *
 * Na        2      0.00000              0.02711              0.00000         *
 * Na        3      0.00000             -0.02722              0.00000         *
 * Na        4      0.00000             -0.02711              0.00000         *
 * Al        1      0.00000              0.02750              0.00000         *
 * Al        2      0.00000              0.02754              0.00000         *
 * Al        3      0.00000             -0.02750              0.00000         *
 * Al        4      0.00000             -0.02754              0.00000         *
 * Si        1     -0.01037             -0.02320             -0.01445         *
 * Si        2     -0.01043             -0.02310             -0.01446         *
 * Si        3      0.01037             -0.02320              0.01445         *
 * Si        4      0.01043             -0.02310              0.01446         *
 * Si        5      0.01037              0.02320              0.01445         *
 * Si        6      0.01043              0.02310              0.01446         *
 * Si        7     -0.01037              0.02320             -0.01445         *
 * Si        8     -0.01043              0.02310             -0.01446         *
 *                                                                            *
 ******************************************************************************
  
 +------------+-------------+-------------+-----------------+ <-- min BFGS
 |    Step    |   lambda    |   F.delta   |    enthalpy     | <-- min BFGS
 +------------+-------------+-------------+-----------------+ <-- min BFGS
 |  previous  |    0.000000 |    0.000112 |   -16835.325633 | <-- min BFGS
 | trial step |    1.000000 |    0.000078 |   -16835.328219 | <-- min BFGS
 |  line step |    3.240904 |    0.000000 |   -16835.330596 | <-- min BFGS
 +------------+-------------+-------------+-----------------+ <-- min BFGS
  
 BFGS: finished iteration     1 with enthalpy= -1.68353306E+004 eV
  
 +-----------+-----------------+-----------------+------------+-----+ <-- BFGS
 | Parameter |      value      |    tolerance    |    units   | OK? | <-- BFGS
 +-----------+-----------------+-----------------+------------+-----+ <-- BFGS
 |  dE/ion   |   1.240690E-004 |   2.000000E-007 |         eV | No  | <-- BFGS
 |  |F|max   |   2.923239E-002 |   1.000000E-003 |       eV/A | No  | <-- BFGS
 |  |dR|max  |   3.420284E-003 |   1.000000E-003 |          A | No  | <-- BFGS
 +-----------+-----------------+-----------------+------------+-----+ <-- BFGS
  

================================================================================
 Starting BFGS iteration          2 ...
================================================================================
 
Writing model to jadeite_4_30_GPa_cij__4__5.check
  
 +------------+-------------+-------------+-----------------+ <-- min BFGS
 |    Step    |   lambda    |   F.delta   |    enthalpy     | <-- min BFGS
 +------------+-------------+-------------+-----------------+ <-- min BFGS
 |  previous  |    0.000000 |    0.000005 |   -16835.330596 | <-- min BFGS
 +------------+-------------+-------------+-----------------+ <-- min BFGS
  

--------------------------------------------------------------------------------
 BFGS: starting iteration         2 with trial guess (lambda=  1.000000)
--------------------------------------------------------------------------------
 
                           -------------------------------
                                     Cell Contents
                           -------------------------------
 
            xxxxxxxxxxxxxxxxxxxxxxxxxxxxxxxxxxxxxxxxxxxxxxxxxxxxxxxxxxxx
            x  Element    Atom        Fractional coordinates of atoms  x
            x            Number           u          v          w      x
            x----------------------------------------------------------x
            x  O            1         0.109248   0.076919   0.129279   x
            x  O            2         0.609250   0.576917   0.129282   x
            x  O            3         0.890752   0.076919   0.370721   x
            x  O            4         0.390750   0.576917   0.370718   x
            x  O            5         0.890752   0.923081   0.870721   x
            x  O            6         0.390750   0.423083   0.870718   x
            x  O            7         0.109248   0.923081   0.629279   x
            x  O            8         0.609250   0.423083   0.629282   x
            x  O            9         0.360962   0.263682   0.295445   x
            x  O           10         0.860961   0.763683   0.295444   x
            x  O           11         0.639038   0.263682   0.204555   x
            x  O           12         0.139039   0.763683   0.204556   x
            x  O           13         0.639038   0.736318   0.704555   x
            x  O           14         0.139039   0.236317   0.704556   x
            x  O           15         0.360962   0.736318   0.795445   x
            x  O           16         0.860961   0.236317   0.795444   x
            x  O           17         0.354040   0.008293   1.004464   x
            x  O           18         0.854043   0.508290   1.004474   x
            x  O           19         0.645960   0.008293   0.495536   x
            x  O           20         0.145957   0.508290   0.495526   x
            x  O           21         0.645960   0.991707  -0.004464   x
            x  O           22         0.145957   0.491710  -0.004474   x
            x  O           23         0.354040   0.991707   0.504464   x
            x  O           24         0.854043   0.491710   0.504474   x
            x  Na           1         0.000000   0.301292   0.250000   x
            x  Na           2         0.500000   0.801296   0.250000   x
            x  Na           3         0.000000   0.698708   0.750000   x
            x  Na           4         0.500000   0.198704   0.750000   x
            x  Al           1         0.000000   0.906381   0.250000   x
            x  Al           2         0.500000   0.406381   0.250000   x
            x  Al           3         0.000000   0.093619   0.750000   x
            x  Al           4         0.500000   0.593619   0.750000   x
            x  Si           1         0.290834   0.093847   0.228543   x
            x  Si           2         0.790836   0.593846   0.228548   x
            x  Si           3         0.709166   0.093847   0.271457   x
            x  Si           4         0.209164   0.593846   0.271452   x
            x  Si           5         0.709166   0.906153   0.771457   x
            x  Si           6         0.209164   0.406154   0.771452   x
            x  Si           7         0.290834   0.906153   0.728543   x
            x  Si           8         0.790836   0.406154   0.728548   x
            xxxxxxxxxxxxxxxxxxxxxxxxxxxxxxxxxxxxxxxxxxxxxxxxxxxxxxxxxxxx
 
 
------------------------------------------------------------------------ <-- SCF
SCF loop      Energy                           Energy gain       Timer   <-- SCF
                                               per atom          (sec)   <-- SCF
------------------------------------------------------------------------ <-- SCF
Initial  -1.68461012E+004                                        244.59  <-- SCF
      1  -1.68461017E+004                    1.30982637E-005     256.41  <-- SCF
      2  -1.68461017E+004                    5.96194018E-009     267.67  <-- SCF
      3  -1.68461017E+004                    4.91105232E-011     281.43  <-- SCF
------------------------------------------------------------------------ <-- SCF
 
Final energy =  -16846.10168142     eV
(energy not corrected for finite basis set)
 
 
 *********************************** Forces ***********************************
 *                                                                            *
 *                        Cartesian components (eV/A)                         *
 * -------------------------------------------------------------------------- *
 *                   x                    y                    z              *
 *                                                                            *
 * O         1     -0.01265             -0.01109              0.01437         *
 * O         2     -0.01278             -0.01104              0.01434         *
 * O         3      0.01265             -0.01109             -0.01437         *
 * O         4      0.01278             -0.01104             -0.01434         *
 * O         5      0.01265              0.01109             -0.01437         *
 * O         6      0.01278              0.01104             -0.01434         *
 * O         7     -0.01265              0.01109              0.01437         *
 * O         8     -0.01278              0.01104              0.01434         *
 * O         9     -0.01681              0.00717              0.01477         *
 * O        10     -0.01677              0.00713              0.01479         *
 * O        11      0.01681              0.00717             -0.01477         *
 * O        12      0.01677              0.00713             -0.01479         *
 * O        13      0.01681             -0.00717             -0.01477         *
 * O        14      0.01677             -0.00713             -0.01479         *
 * O        15     -0.01681             -0.00717              0.01477         *
 * O        16     -0.01677             -0.00713              0.01479         *
 * O        17     -0.00879              0.02000             -0.01046         *
 * O        18     -0.00890              0.02005             -0.01050         *
 * O        19      0.00879              0.02000              0.01046         *
 * O        20      0.00890              0.02005              0.01050         *
 * O        21      0.00879             -0.02000              0.01046         *
 * O        22      0.00890             -0.02005              0.01050         *
 * O        23     -0.00879             -0.02000             -0.01046         *
 * O        24     -0.00890             -0.02005             -0.01050         *
 * Na        1      0.00000              0.02640              0.00000         *
 * Na        2      0.00000              0.02629              0.00000         *
 * Na        3      0.00000             -0.02640              0.00000         *
 * Na        4      0.00000             -0.02629              0.00000         *
 * Al        1      0.00000              0.02433              0.00000         *
 * Al        2      0.00000              0.02437              0.00000         *
 * Al        3      0.00000             -0.02433              0.00000         *
 * Al        4      0.00000             -0.02437              0.00000         *
 * Si        1     -0.00994             -0.01652             -0.01454         *
 * Si        2     -0.01001             -0.01644             -0.01455         *
 * Si        3      0.00994             -0.01652              0.01454         *
 * Si        4      0.01001             -0.01644              0.01455         *
 * Si        5      0.00994              0.01652              0.01454         *
 * Si        6      0.01001              0.01644              0.01455         *
 * Si        7     -0.00994              0.01652             -0.01454         *
 * Si        8     -0.01001              0.01644             -0.01455         *
 *                                                                            *
 ******************************************************************************
  
 +------------+-------------+-------------+-----------------+ <-- min BFGS
 |    Step    |   lambda    |   F.delta   |    enthalpy     | <-- min BFGS
 +------------+-------------+-------------+-----------------+ <-- min BFGS
 |  previous  |    0.000000 |    0.000005 |   -16835.330596 | <-- min BFGS
 | trial step |    1.000000 |    0.000004 |   -16835.330723 | <-- min BFGS
 +------------+-------------+-------------+-----------------+ <-- min BFGS
  

--------------------------------------------------------------------------------
 BFGS: improving iteration         2 with line minimization (lambda= 10.483341)
--------------------------------------------------------------------------------
 
                           -------------------------------
                                     Cell Contents
                           -------------------------------
 
            xxxxxxxxxxxxxxxxxxxxxxxxxxxxxxxxxxxxxxxxxxxxxxxxxxxxxxxxxxxx
            x  Element    Atom        Fractional coordinates of atoms  x
            x            Number           u          v          w      x
            x----------------------------------------------------------x
            x  O            1         0.109172   0.076851   0.129386   x
            x  O            2         0.609173   0.576850   0.129388   x
            x  O            3         0.890828   0.076851   0.370614   x
            x  O            4         0.390827   0.576850   0.370612   x
            x  O            5         0.890828   0.923149   0.870614   x
            x  O            6         0.390827   0.423150   0.870612   x
            x  O            7         0.109172   0.923149   0.629386   x
            x  O            8         0.609173   0.423150   0.629388   x
            x  O            9         0.360867   0.263727   0.295551   x
            x  O           10         0.860866   0.763728   0.295550   x
            x  O           11         0.639133   0.263727   0.204449   x
            x  O           12         0.139134   0.763728   0.204450   x
            x  O           13         0.639133   0.736273   0.704449   x
            x  O           14         0.139134   0.236272   0.704450   x
            x  O           15         0.360867   0.736273   0.795551   x
            x  O           16         0.860866   0.236272   0.795550   x
            x  O           17         0.353992   0.008369   1.004251   x
            x  O           18         0.853995   0.508366   1.004260   x
            x  O           19         0.646008   0.008369   0.495749   x
            x  O           20         0.146005   0.508366   0.495740   x
            x  O           21         0.646008   0.991631  -0.004251   x
            x  O           22         0.146005   0.491634  -0.004260   x
            x  O           23         0.353992   0.991631   0.504251   x
            x  O           24         0.853995   0.491634   0.504260   x
            x  Na           1         0.000000   0.301445   0.250000   x
            x  Na           2         0.500000   0.801449   0.250000   x
            x  Na           3         0.000000   0.698555   0.750000   x
            x  Na           4         0.500000   0.198551   0.750000   x
            x  Al           1         0.000000   0.906541   0.250000   x
            x  Al           2         0.500000   0.406542   0.250000   x
            x  Al           3         0.000000   0.093459   0.750000   x
            x  Al           4         0.500000   0.593458   0.750000   x
            x  Si           1         0.290777   0.093728   0.228454   x
            x  Si           2         0.790778   0.593727   0.228459   x
            x  Si           3         0.709223   0.093728   0.271546   x
            x  Si           4         0.209222   0.593727   0.271541   x
            x  Si           5         0.709223   0.906272   0.771546   x
            x  Si           6         0.209222   0.406273   0.771541   x
            x  Si           7         0.290777   0.906272   0.728454   x
            x  Si           8         0.790778   0.406273   0.728459   x
            xxxxxxxxxxxxxxxxxxxxxxxxxxxxxxxxxxxxxxxxxxxxxxxxxxxxxxxxxxxx
 
 
------------------------------------------------------------------------ <-- SCF
SCF loop      Energy                           Energy gain       Timer   <-- SCF
                                               per atom          (sec)   <-- SCF
------------------------------------------------------------------------ <-- SCF
Initial  -1.68460767E+004                                        287.12  <-- SCF
      1  -1.68461022E+004                    6.37389177E-004     299.84  <-- SCF
      2  -1.68461023E+004                    3.10436821E-007     311.60  <-- SCF
      3  -1.68461023E+004                    1.92234829E-009     323.97  <-- SCF
      4  -1.68461023E+004                    3.97524550E-011     336.21  <-- SCF
------------------------------------------------------------------------ <-- SCF
 
Final energy =  -16846.10225516     eV
(energy not corrected for finite basis set)
 
 
 *********************************** Forces ***********************************
 *                                                                            *
 *                        Cartesian components (eV/A)                         *
 * -------------------------------------------------------------------------- *
 *                   x                    y                    z              *
 *                                                                            *
 * O         1      0.00194             -0.00450              0.00492         *
 * O         2      0.00202             -0.00442              0.00492         *
 * O         3     -0.00194             -0.00450             -0.00492         *
 * O         4     -0.00202             -0.00442             -0.00492         *
 * O         5     -0.00194              0.00450             -0.00492         *
 * O         6     -0.00202              0.00442             -0.00492         *
 * O         7      0.00194              0.00450              0.00492         *
 * O         8      0.00202              0.00442              0.00492         *
 * O         9     -0.02025             -0.02264              0.00108         *
 * O        10     -0.02017             -0.02255              0.00112         *
 * O        11      0.02025             -0.02264             -0.00108         *
 * O        12      0.02017             -0.02255             -0.00112         *
 * O        13      0.02025              0.02264             -0.00108         *
 * O        14      0.02017              0.02255             -0.00112         *
 * O        15     -0.02025              0.02264              0.00108         *
 * O        16     -0.02017              0.02255              0.00112         *
 * O        17     -0.00002              0.02814              0.00083         *
 * O        18     -0.00014              0.02818              0.00078         *
 * O        19      0.00002              0.02814             -0.00083         *
 * O        20      0.00014              0.02818             -0.00078         *
 * O        21      0.00002             -0.02814             -0.00083         *
 * O        22      0.00014             -0.02818             -0.00078         *
 * O        23     -0.00002             -0.02814              0.00083         *
 * O        24     -0.00014             -0.02818              0.00078         *
 * Na        1      0.00000              0.01878              0.00000         *
 * Na        2      0.00000              0.01868              0.00000         *
 * Na        3      0.00000             -0.01878              0.00000         *
 * Na        4      0.00000             -0.01868              0.00000         *
 * Al        1      0.00000             -0.00563              0.00000         *
 * Al        2      0.00000             -0.00563              0.00000         *
 * Al        3      0.00000              0.00563              0.00000         *
 * Al        4      0.00000              0.00563              0.00000         *
 * Si        1     -0.00596              0.04669             -0.01544         *
 * Si        2     -0.00614              0.04654             -0.01548         *
 * Si        3      0.00596              0.04669              0.01544         *
 * Si        4      0.00614              0.04654              0.01548         *
 * Si        5      0.00596             -0.04669              0.01544         *
 * Si        6      0.00614             -0.04654              0.01548         *
 * Si        7     -0.00596             -0.04669             -0.01544         *
 * Si        8     -0.00614             -0.04654             -0.01548         *
 *                                                                            *
 ******************************************************************************
  
 +------------+-------------+-------------+-----------------+ <-- min BFGS
 |    Step    |   lambda    |   F.delta   |    enthalpy     | <-- min BFGS
 +------------+-------------+-------------+-----------------+ <-- min BFGS
 |  previous  |    0.000000 |    0.000005 |   -16835.330596 | <-- min BFGS
 | trial step |    1.000000 |    0.000004 |   -16835.330723 | <-- min BFGS
 |  line step |   10.483341 |    0.000000 |   -16835.331297 | <-- min BFGS
 +------------+-------------+-------------+-----------------+ <-- min BFGS
  
 BFGS: finished iteration     2 with enthalpy= -1.68353313E+004 eV
  
 +-----------+-----------------+-----------------+------------+-----+ <-- BFGS
 | Parameter |      value      |    tolerance    |    units   | OK? | <-- BFGS
 +-----------+-----------------+-----------------+------------+-----+ <-- BFGS
 |  dE/ion   |   1.751255E-005 |   2.000000E-007 |         eV | No  | <-- BFGS
 |  |F|max   |   4.953655E-002 |   1.000000E-003 |       eV/A | No  | <-- BFGS
 |  |dR|max  |   1.522049E-003 |   1.000000E-003 |          A | No  | <-- BFGS
 +-----------+-----------------+-----------------+------------+-----+ <-- BFGS
  

================================================================================
 Starting BFGS iteration          3 ...
================================================================================
 
Writing model to jadeite_4_30_GPa_cij__4__5.check
  
 +------------+-------------+-------------+-----------------+ <-- min BFGS
 |    Step    |   lambda    |   F.delta   |    enthalpy     | <-- min BFGS
 +------------+-------------+-------------+-----------------+ <-- min BFGS
 |  previous  |    0.000000 |    0.000007 |   -16835.331297 | <-- min BFGS
 +------------+-------------+-------------+-----------------+ <-- min BFGS
  

--------------------------------------------------------------------------------
 BFGS: starting iteration         3 with trial guess (lambda=  1.000000)
--------------------------------------------------------------------------------
 
                           -------------------------------
                                     Cell Contents
                           -------------------------------
 
            xxxxxxxxxxxxxxxxxxxxxxxxxxxxxxxxxxxxxxxxxxxxxxxxxxxxxxxxxxxx
            x  Element    Atom        Fractional coordinates of atoms  x
            x            Number           u          v          w      x
            x----------------------------------------------------------x
            x  O            1         0.109163   0.076840   0.129405   x
            x  O            2         0.609164   0.576839   0.129406   x
            x  O            3         0.890837   0.076840   0.370595   x
            x  O            4         0.390836   0.576839   0.370594   x
            x  O            5         0.890837   0.923160   0.870595   x
            x  O            6         0.390836   0.423161   0.870594   x
            x  O            7         0.109163   0.923160   0.629405   x
            x  O            8         0.609164   0.423161   0.629406   x
            x  O            9         0.360844   0.263722   0.295560   x
            x  O           10         0.860843   0.763723   0.295560   x
            x  O           11         0.639156   0.263722   0.204440   x
            x  O           12         0.139157   0.763723   0.204440   x
            x  O           13         0.639156   0.736278   0.704440   x
            x  O           14         0.139157   0.236277   0.704440   x
            x  O           15         0.360844   0.736278   0.795560   x
            x  O           16         0.860843   0.236277   0.795560   x
            x  O           17         0.353985   0.008400   1.004233   x
            x  O           18         0.853987   0.508397   1.004242   x
            x  O           19         0.646015   0.008400   0.495767   x
            x  O           20         0.146013   0.508397   0.495758   x
            x  O           21         0.646015   0.991600  -0.004233   x
            x  O           22         0.146013   0.491603  -0.004242   x
            x  O           23         0.353985   0.991600   0.504233   x
            x  O           24         0.853987   0.491603   0.504242   x
            x  Na           1         0.000000   0.301476   0.250000   x
            x  Na           2         0.500000   0.801480   0.250000   x
            x  Na           3         0.000000   0.698524   0.750000   x
            x  Na           4         0.500000   0.198520   0.750000   x
            x  Al           1         0.000000   0.906559   0.250000   x
            x  Al           2         0.500000   0.406560   0.250000   x
            x  Al           3         0.000000   0.093441   0.750000   x
            x  Al           4         0.500000   0.593440   0.750000   x
            x  Si           1         0.290766   0.093737   0.228416   x
            x  Si           2         0.790767   0.593736   0.228422   x
            x  Si           3         0.709234   0.093737   0.271584   x
            x  Si           4         0.209233   0.593736   0.271578   x
            x  Si           5         0.709234   0.906263   0.771584   x
            x  Si           6         0.209233   0.406264   0.771578   x
            x  Si           7         0.290766   0.906263   0.728416   x
            x  Si           8         0.790767   0.406264   0.728422   x
            xxxxxxxxxxxxxxxxxxxxxxxxxxxxxxxxxxxxxxxxxxxxxxxxxxxxxxxxxxxx
 
 
------------------------------------------------------------------------ <-- SCF
SCF loop      Energy                           Energy gain       Timer   <-- SCF
                                               per atom          (sec)   <-- SCF
------------------------------------------------------------------------ <-- SCF
Initial  -1.68461012E+004                                        342.27  <-- SCF
      1  -1.68461024E+004                    2.93095340E-005     354.47  <-- SCF
      2  -1.68461024E+004                    1.40533436E-008     366.87  <-- SCF
      3  -1.68461024E+004                    9.67515977E-011     379.60  <-- SCF
      4  -1.68461024E+004                    2.39752161E-012     393.85  <-- SCF
------------------------------------------------------------------------ <-- SCF
 
Final energy =  -16846.10241604     eV
(energy not corrected for finite basis set)
 
 
 *********************************** Forces ***********************************
 *                                                                            *
 *                        Cartesian components (eV/A)                         *
 * -------------------------------------------------------------------------- *
 *                   x                    y                    z              *
 *                                                                            *
 * O         1      0.00223             -0.00276              0.00302         *
 * O         2      0.00228             -0.00268              0.00302         *
 * O         3     -0.00223             -0.00276             -0.00302         *
 * O         4     -0.00228             -0.00268             -0.00302         *
 * O         5     -0.00223              0.00276             -0.00302         *
 * O         6     -0.00228              0.00268             -0.00302         *
 * O         7      0.00223              0.00276              0.00302         *
 * O         8      0.00228              0.00268              0.00302         *
 * O         9     -0.01603             -0.01735             -0.00015         *
 * O        10     -0.01597             -0.01729             -0.00012         *
 * O        11      0.01603             -0.01735              0.00015         *
 * O        12      0.01597             -0.01729              0.00012         *
 * O        13      0.01603              0.01735              0.00015         *
 * O        14      0.01597              0.01729              0.00012         *
 * O        15     -0.01603              0.01735             -0.00015         *
 * O        16     -0.01597              0.01729             -0.00012         *
 * O        17     -0.00042              0.02358             -0.00572         *
 * O        18     -0.00054              0.02361             -0.00577         *
 * O        19      0.00042              0.02358              0.00572         *
 * O        20      0.00054              0.02361              0.00577         *
 * O        21      0.00042             -0.02358              0.00572         *
 * O        22      0.00054             -0.02361              0.00577         *
 * O        23     -0.00042             -0.02358             -0.00572         *
 * O        24     -0.00054             -0.02361             -0.00577         *
 * Na        1      0.00000              0.01841              0.00000         *
 * Na        2      0.00000              0.01832              0.00000         *
 * Na        3      0.00000             -0.01841              0.00000         *
 * Na        4      0.00000             -0.01832              0.00000         *
 * Al        1      0.00000             -0.00892              0.00000         *
 * Al        2      0.00000             -0.00894              0.00000         *
 * Al        3      0.00000              0.00892              0.00000         *
 * Al        4      0.00000              0.00894              0.00000         *
 * Si        1     -0.00568              0.04105             -0.00872         *
 * Si        2     -0.00581              0.04094             -0.00875         *
 * Si        3      0.00568              0.04105              0.00872         *
 * Si        4      0.00581              0.04094              0.00875         *
 * Si        5      0.00568             -0.04105              0.00872         *
 * Si        6      0.00581             -0.04094              0.00875         *
 * Si        7     -0.00568             -0.04105             -0.00872         *
 * Si        8     -0.00581             -0.04094             -0.00875         *
 *                                                                            *
 ******************************************************************************
  
 +------------+-------------+-------------+-----------------+ <-- min BFGS
 |    Step    |   lambda    |   F.delta   |    enthalpy     | <-- min BFGS
 +------------+-------------+-------------+-----------------+ <-- min BFGS
 |  previous  |    0.000000 |    0.000007 |   -16835.331297 | <-- min BFGS
 | trial step |    1.000000 |    0.000005 |   -16835.331458 | <-- min BFGS
 +------------+-------------+-------------+-----------------+ <-- min BFGS
  

--------------------------------------------------------------------------------
 BFGS: improving iteration         3 with line minimization (lambda=  5.257144)
--------------------------------------------------------------------------------
 
                           -------------------------------
                                     Cell Contents
                           -------------------------------
 
            xxxxxxxxxxxxxxxxxxxxxxxxxxxxxxxxxxxxxxxxxxxxxxxxxxxxxxxxxxxx
            x  Element    Atom        Fractional coordinates of atoms  x
            x            Number           u          v          w      x
            x----------------------------------------------------------x
            x  O            1         0.109123   0.076791   0.129485   x
            x  O            2         0.609124   0.576790   0.129487   x
            x  O            3         0.890877   0.076791   0.370515   x
            x  O            4         0.390876   0.576790   0.370513   x
            x  O            5         0.890877   0.923209   0.870515   x
            x  O            6         0.390876   0.423210   0.870513   x
            x  O            7         0.109123   0.923209   0.629485   x
            x  O            8         0.609124   0.423210   0.629487   x
            x  O            9         0.360746   0.263701   0.295600   x
            x  O           10         0.860746   0.763701   0.295600   x
            x  O           11         0.639254   0.263701   0.204400   x
            x  O           12         0.139254   0.763701   0.204400   x
            x  O           13         0.639254   0.736299   0.704400   x
            x  O           14         0.139254   0.236299   0.704400   x
            x  O           15         0.360746   0.736299   0.795600   x
            x  O           16         0.860746   0.236299   0.795600   x
            x  O           17         0.353955   0.008529   1.004158   x
            x  O           18         0.853957   0.508527   1.004166   x
            x  O           19         0.646045   0.008529   0.495842   x
            x  O           20         0.146043   0.508527   0.495834   x
            x  O           21         0.646045   0.991471  -0.004158   x
            x  O           22         0.146043   0.491473  -0.004166   x
            x  O           23         0.353955   0.991471   0.504158   x
            x  O           24         0.853957   0.491473   0.504166   x
            x  Na           1         0.000000   0.301610   0.250000   x
            x  Na           2         0.500000   0.801613   0.250000   x
            x  Na           3         0.000000   0.698390   0.750000   x
            x  Na           4         0.500000   0.198387   0.750000   x
            x  Al           1         0.000000   0.906635   0.250000   x
            x  Al           2         0.500000   0.406635   0.250000   x
            x  Al           3         0.000000   0.093365   0.750000   x
            x  Al           4         0.500000   0.593365   0.750000   x
            x  Si           1         0.290720   0.093774   0.228255   x
            x  Si           2         0.790721   0.593774   0.228260   x
            x  Si           3         0.709280   0.093774   0.271745   x
            x  Si           4         0.209279   0.593774   0.271740   x
            x  Si           5         0.709280   0.906226   0.771745   x
            x  Si           6         0.209279   0.406226   0.771740   x
            x  Si           7         0.290720   0.906226   0.728255   x
            x  Si           8         0.790721   0.406226   0.728260   x
            xxxxxxxxxxxxxxxxxxxxxxxxxxxxxxxxxxxxxxxxxxxxxxxxxxxxxxxxxxxx
 
 
------------------------------------------------------------------------ <-- SCF
SCF loop      Energy                           Energy gain       Timer   <-- SCF
                                               per atom          (sec)   <-- SCF
------------------------------------------------------------------------ <-- SCF
Initial  -1.68460889E+004                                        399.37  <-- SCF
      1  -1.68461027E+004                    3.45275678E-004     411.37  <-- SCF
      2  -1.68461027E+004                    1.81039718E-007     423.04  <-- SCF
      3  -1.68461027E+004                    1.31221771E-009     434.53  <-- SCF
      4  -1.68461027E+004                    2.67594347E-011     447.65  <-- SCF
------------------------------------------------------------------------ <-- SCF
 
Final energy =  -16846.10272162     eV
(energy not corrected for finite basis set)
 
 
 *********************************** Forces ***********************************
 *                                                                            *
 *                        Cartesian components (eV/A)                         *
 * -------------------------------------------------------------------------- *
 *                   x                    y                    z              *
 *                                                                            *
 * O         1      0.00352              0.00474             -0.00514         *
 * O         2      0.00351              0.00477             -0.00513         *
 * O         3     -0.00352              0.00474              0.00514         *
 * O         4     -0.00351              0.00477              0.00513         *
 * O         5     -0.00352             -0.00474              0.00514         *
 * O         6     -0.00351             -0.00477              0.00513         *
 * O         7      0.00352             -0.00474             -0.00514         *
 * O         8      0.00351             -0.00477             -0.00513         *
 * O         9      0.00199              0.00517             -0.00540         *
 * O        10      0.00193              0.00505             -0.00537         *
 * O        11     -0.00199              0.00517              0.00540         *
 * O        12     -0.00193              0.00505              0.00537         *
 * O        13     -0.00199             -0.00517              0.00540         *
 * O        14     -0.00193             -0.00505              0.00537         *
 * O        15      0.00199             -0.00517             -0.00540         *
 * O        16      0.00193             -0.00505             -0.00537         *
 * O        17     -0.00207              0.00411             -0.03351         *
 * O        18     -0.00220              0.00413             -0.03357         *
 * O        19      0.00207              0.00411              0.03351         *
 * O        20      0.00220              0.00413              0.03357         *
 * O        21      0.00207             -0.00411              0.03351         *
 * O        22      0.00220             -0.00413              0.03357         *
 * O        23     -0.00207             -0.00411             -0.03351         *
 * O        24     -0.00220             -0.00413             -0.03357         *
 * Na        1      0.00000              0.01671              0.00000         *
 * Na        2      0.00000              0.01666              0.00000         *
 * Na        3      0.00000             -0.01671              0.00000         *
 * Na        4      0.00000             -0.01666              0.00000         *
 * Al        1      0.00000             -0.02293              0.00000         *
 * Al        2      0.00000             -0.02300              0.00000         *
 * Al        3      0.00000              0.02293              0.00000         *
 * Al        4      0.00000              0.02300              0.00000         *
 * Si        1     -0.00458              0.01709              0.01983         *
 * Si        2     -0.00450              0.01715              0.01981         *
 * Si        3      0.00458              0.01709             -0.01983         *
 * Si        4      0.00450              0.01715             -0.01981         *
 * Si        5      0.00458             -0.01709             -0.01983         *
 * Si        6      0.00450             -0.01715             -0.01981         *
 * Si        7     -0.00458             -0.01709              0.01983         *
 * Si        8     -0.00450             -0.01715              0.01981         *
 *                                                                            *
 ******************************************************************************
  
 +------------+-------------+-------------+-----------------+ <-- min BFGS
 |    Step    |   lambda    |   F.delta   |    enthalpy     | <-- min BFGS
 +------------+-------------+-------------+-----------------+ <-- min BFGS
 |  previous  |    0.000000 |    0.000007 |   -16835.331297 | <-- min BFGS
 | trial step |    1.000000 |    0.000005 |   -16835.331458 | <-- min BFGS
 |  line step |    5.257144 |    0.000000 |   -16835.331763 | <-- min BFGS
 +------------+-------------+-------------+-----------------+ <-- min BFGS
  
 BFGS: finished iteration     3 with enthalpy= -1.68353318E+004 eV
  
 +-----------+-----------------+-----------------+------------+-----+ <-- BFGS
 | Parameter |      value      |    tolerance    |    units   | OK? | <-- BFGS
 +-----------+-----------------+-----------------+------------+-----+ <-- BFGS
 |  dE/ion   |   1.166147E-005 |   2.000000E-007 |         eV | No  | <-- BFGS
 |  |F|max   |   3.389632E-002 |   1.000000E-003 |       eV/A | No  | <-- BFGS
 |  |dR|max  |   1.466900E-003 |   1.000000E-003 |          A | No  | <-- BFGS
 +-----------+-----------------+-----------------+------------+-----+ <-- BFGS
  

================================================================================
 Starting BFGS iteration          4 ...
================================================================================
 
Writing model to jadeite_4_30_GPa_cij__4__5.check
  
 +------------+-------------+-------------+-----------------+ <-- min BFGS
[...]
            x  O           20         0.146224   0.509661   0.498058   x
            x  O           21         0.646225   0.990340  -0.001941   x
            x  O           22         0.146224   0.490339  -0.001942   x
            x  O           23         0.353775   0.990340   0.501941   x
            x  O           24         0.853776   0.490339   0.501942   x
            x  Na           1         0.000000   0.302509   0.250000   x
            x  Na           2         0.500000   0.802509   0.250000   x
            x  Na           3         0.000000   0.697491   0.750000   x
            x  Na           4         0.500000   0.197491   0.750000   x
            x  Al           1         0.000000   0.906407   0.250000   x
            x  Al           2         0.500000   0.406407   0.250000   x
            x  Al           3         0.000000   0.093593   0.750000   x
            x  Al           4         0.500000   0.593593   0.750000   x
            x  Si           1         0.290625   0.093855   0.227391   x
            x  Si           2         0.790625   0.593855   0.227390   x
            x  Si           3         0.709375   0.093855   0.272609   x
            x  Si           4         0.209375   0.593855   0.272610   x
            x  Si           5         0.709375   0.906145   0.772609   x
            x  Si           6         0.209375   0.406145   0.772610   x
            x  Si           7         0.290625   0.906145   0.727391   x
            x  Si           8         0.790625   0.406145   0.727390   x
            xxxxxxxxxxxxxxxxxxxxxxxxxxxxxxxxxxxxxxxxxxxxxxxxxxxxxxxxxxxx
 
 
 BFGS: Final Enthalpy     = -1.68353335E+004 eV
 BFGS: Final <frequency>  =     959.15341 cm-1
 
 ***************************** Symmetrised Forces *****************************
 *                                                                            *
 *                        Cartesian components (eV/A)                         *
 * -------------------------------------------------------------------------- *
 *                   x                    y                    z              *
 *                                                                            *
 * O         1      0.00030              0.00006             -0.00012         *
 * O         2      0.00005              0.00005             -0.00011         *
 * O         3     -0.00030              0.00006              0.00012         *
 * O         4     -0.00005              0.00005              0.00011         *
 * O         5     -0.00030             -0.00006              0.00012         *
 * O         6     -0.00005             -0.00005              0.00011         *
 * O         7      0.00030             -0.00006             -0.00012         *
 * O         8      0.00005             -0.00005             -0.00011         *
 * O         9     -0.00001             -0.00013              0.00046         *
 * O        10     -0.00006             -0.00015              0.00048         *
 * O        11      0.00001             -0.00013             -0.00046         *
 * O        12      0.00006             -0.00015             -0.00048         *
 * O        13      0.00001              0.00013             -0.00046         *
 * O        14      0.00006              0.00015             -0.00048         *
 * O        15     -0.00001              0.00013              0.00046         *
 * O        16     -0.00006              0.00015              0.00048         *
 * O        17      0.00038             -0.00019              0.00021         *
 * O        18      0.00029             -0.00044             -0.00016         *
 * O        19     -0.00038             -0.00019             -0.00021         *
 * O        20     -0.00029             -0.00044              0.00016         *
 * O        21     -0.00038              0.00019             -0.00021         *
 * O        22     -0.00029              0.00044              0.00016         *
 * O        23      0.00038              0.00019              0.00021         *
 * O        24      0.00029              0.00044             -0.00016         *
 * Na        1      0.00000              0.00017              0.00000         *
 * Na        2      0.00000              0.00015              0.00000         *
 * Na        3      0.00000             -0.00017              0.00000         *
 * Na        4      0.00000             -0.00015              0.00000         *
 * Al        1      0.00000             -0.00011              0.00000         *
 * Al        2      0.00000             -0.00012              0.00000         *
 * Al        3      0.00000              0.00011              0.00000         *
 * Al        4      0.00000              0.00012              0.00000         *
 * Si        1     -0.00001             -0.00018             -0.00012         *
 * Si        2      0.00032             -0.00023              0.00023         *
 * Si        3      0.00001             -0.00018              0.00012         *
 * Si        4     -0.00032             -0.00023             -0.00023         *
 * Si        5      0.00001              0.00018              0.00012         *
 * Si        6     -0.00032              0.00023             -0.00023         *
 * Si        7     -0.00001              0.00018             -0.00012         *
 * Si        8      0.00032              0.00023              0.00023         *
 *                                                                            *
 ******************************************************************************
 
 *********** Symmetrised Stress Tensor ***********
 *                                               *
 *          Cartesian components (GPa)           *
 * --------------------------------------------- *
 *             x             y             z     *
 *                                               *
 *  x     -4.041610      0.000000      0.750385  *
 *  y      0.000000     -3.912319      0.000000  *
 *  z      0.750385      0.000000     -3.729915  *
 *                                               *
 *  Pressure:    3.8946                          *
 *                                               *
 *************************************************
 
 Pseudo atomic calculation performed for O 2s2 2p4
 
 Converged in 36 iterations to a total energy of -429.6485 eV
 
 
 Pseudo atomic calculation performed for Na 2s2 2p6 3s1
 
 Converged in 33 iterations to a total energy of -1302.8467 eV
 
 
 Pseudo atomic calculation performed for Al 3s2 3p1
 
 Converged in 20 iterations to a total energy of -52.7392 eV
 
 
 Pseudo atomic calculation performed for Si 3s2 3p2
 
 Converged in 21 iterations to a total energy of -101.9044 eV
 
Charge spilling parameter for spin component 1 = 0.85%
 
     Atomic Populations (Mulliken)
     -----------------------------
Species   Ion     s      p      d      f     Total  Charge (e)
==============================================================
  O        1     1.85   5.24   0.00   0.00   7.08    -1.08
  O        2     1.85   5.24   0.00   0.00   7.08    -1.08
  O        3     1.85   5.24   0.00   0.00   7.08    -1.08
  O        4     1.85   5.24   0.00   0.00   7.08    -1.08
  O        5     1.85   5.24   0.00   0.00   7.08    -1.08
  O        6     1.85   5.24   0.00   0.00   7.08    -1.08
  O        7     1.85   5.24   0.00   0.00   7.08    -1.08
  O        8     1.85   5.24   0.00   0.00   7.08    -1.08
  O        9     1.84   5.29   0.00   0.00   7.12    -1.12
  O       10     1.84   5.29   0.00   0.00   7.12    -1.12
  O       11     1.84   5.29   0.00   0.00   7.12    -1.12
  O       12     1.84   5.29   0.00   0.00   7.12    -1.12
  O       13     1.84   5.29   0.00   0.00   7.12    -1.12
  O       14     1.84   5.29   0.00   0.00   7.12    -1.12
  O       15     1.84   5.29   0.00   0.00   7.12    -1.12
  O       16     1.84   5.29   0.00   0.00   7.12    -1.12
  O       17     1.83   5.30   0.00   0.00   7.12    -1.12
  O       18     1.83   5.30   0.00   0.00   7.12    -1.12
  O       19     1.83   5.30   0.00   0.00   7.12    -1.12
  O       20     1.83   5.30   0.00   0.00   7.12    -1.12
  O       21     1.83   5.30   0.00   0.00   7.12    -1.12
  O       22     1.83   5.30   0.00   0.00   7.12    -1.12
  O       23     1.83   5.30   0.00   0.00   7.12    -1.12
  O       24     1.83   5.30   0.00   0.00   7.12    -1.12
  Na       1     2.04   5.77   0.00   0.00   7.82     1.18
  Na       2     2.04   5.77   0.00   0.00   7.82     1.18
  Na       3     2.04   5.77   0.00   0.00   7.82     1.18
  Na       4     2.04   5.77   0.00   0.00   7.82     1.18
  Al       1     0.51   0.92   0.00   0.00   1.42     1.58
  Al       2     0.51   0.92   0.00   0.00   1.42     1.58
  Al       3     0.51   0.92   0.00   0.00   1.42     1.58
  Al       4     0.51   0.92   0.00   0.00   1.42     1.58
  Si       1     0.69   1.36   0.00   0.00   2.05     1.95
  Si       2     0.69   1.36   0.00   0.00   2.05     1.95
  Si       3     0.69   1.36   0.00   0.00   2.05     1.95
  Si       4     0.69   1.36   0.00   0.00   2.05     1.95
  Si       5     0.69   1.36   0.00   0.00   2.05     1.95
  Si       6     0.69   1.36   0.00   0.00   2.05     1.95
  Si       7     0.69   1.36   0.00   0.00   2.05     1.95
  Si       8     0.69   1.36   0.00   0.00   2.05     1.95
==============================================================
 
     Bond                     Population      Length (A)
============================================================
   O 009 --   Si 001               0.76        1.59268
   O 011 --   Si 003               0.76        1.59268
   O 015 --   Si 007               0.76        1.59268
   O 013 --   Si 005               0.76        1.59268
   O 012 --   Si 004               0.76        1.59268
   O 010 --   Si 002               0.76        1.59268
   O 016 --   Si 008               0.76        1.59268
   O 014 --   Si 006               0.76        1.59268
   O 024 --   Si 008               0.56        1.63138
   O 022 --   Si 006               0.56        1.63138
   O 020 --   Si 004               0.56        1.63138
   O 018 --   Si 002               0.56        1.63138
   O 017 --   Si 001               0.56        1.63138
   O 019 --   Si 003               0.56        1.63138
   O 021 --   Si 005               0.56        1.63138
   O 023 --   Si 007               0.56        1.63138
   O 008 --   Si 008               0.60        1.63716
   O 006 --   Si 006               0.60        1.63716
   O 004 --   Si 004               0.60        1.63716
   O 002 --   Si 002               0.60        1.63716
   O 003 --   Si 003               0.60        1.63716
   O 005 --   Si 005               0.60        1.63716
   O 001 --   Si 001               0.60        1.63716
   O 007 --   Si 007               0.60        1.63716
   O 023 --   Si 001               0.58        1.64210
   O 021 --   Si 003               0.58        1.64210
   O 019 --   Si 005               0.58        1.64210
   O 017 --   Si 007               0.58        1.64210
   O 020 --   Si 006               0.58        1.64211
   O 018 --   Si 008               0.58        1.64211
   O 022 --   Si 004               0.58        1.64211
   O 024 --   Si 002               0.58        1.64211
   O 016 --   Al 003               0.42        1.85506
   O 010 --   Al 001               0.42        1.85506
   O 014 --   Al 003               0.42        1.85506
   O 012 --   Al 001               0.42        1.85506
   O 013 --   Al 004               0.42        1.85506
   O 011 --   Al 002               0.42        1.85506
   O 015 --   Al 004               0.42        1.85506
   O 009 --   Al 002               0.42        1.85506
   O 005 --   Al 001               0.32        1.95070
   O 003 --   Al 003               0.32        1.95070
   O 007 --   Al 001               0.32        1.95070
   O 001 --   Al 003               0.32        1.95070
   O 004 --   Al 004               0.32        1.95070
   O 006 --   Al 002               0.32        1.95070
   O 008 --   Al 002               0.32        1.95070
   O 002 --   Al 004               0.32        1.95070
   O 007 --   Al 003               0.31        1.98846
   O 005 --   Al 003               0.31        1.98846
   O 001 --   Al 001               0.31        1.98846
   O 003 --   Al 001               0.31        1.98846
   O 006 --   Al 004               0.31        1.98846
   O 008 --   Al 004               0.31        1.98846
   O 004 --   Al 002               0.31        1.98846
   O 002 --   Al 002               0.31        1.98846
   O 001 --   Na 001              -0.01        2.35604
   O 003 --   Na 001              -0.01        2.35604
   O 007 --   Na 003              -0.01        2.35604
   O 005 --   Na 003              -0.01        2.35604
   O 008 --   Na 004              -0.01        2.35604
   O 006 --   Na 004              -0.01        2.35604
   O 004 --   Na 002              -0.01        2.35604
   O 002 --   Na 002              -0.01        2.35604
   O 024 --   Na 003              -0.04        2.38154
   O 018 --   Na 001              -0.04        2.38154
   O 022 --   Na 003              -0.04        2.38154
   O 020 --   Na 001              -0.04        2.38154
   O 023 --   Na 004              -0.04        2.38154
   O 017 --   Na 002              -0.04        2.38154
   O 021 --   Na 004              -0.04        2.38154
   O 019 --   Na 002              -0.04        2.38154
   O 015 --   Na 002              -0.06        2.41663
   O 013 --   Na 002              -0.06        2.41663
   O 011 --   Na 004              -0.06        2.41663
   O 009 --   Na 004              -0.06        2.41663
   O 010 --   Na 003              -0.06        2.41663
   O 012 --   Na 003              -0.06        2.41663
   O 014 --   Na 001              -0.06        2.41663
   O 016 --   Na 001              -0.06        2.41663
   O 003 --    O 007              -0.10        2.47769
   O 001 --    O 005              -0.10        2.47769
   O 004 --    O 008              -0.10        2.47769
   O 002 --    O 006              -0.10        2.47769
   O 009 --    O 023              -0.10        2.58289
   O 011 --    O 021              -0.10        2.58289
   O 015 --    O 017              -0.10        2.58289
   O 013 --    O 019              -0.10        2.58289
   O 012 --    O 022              -0.10        2.58290
   O 016 --    O 018              -0.10        2.58290
   O 010 --    O 024              -0.10        2.58290
   O 014 --    O 020              -0.10        2.58290
   O 017 --    O 023              -0.17        2.61519
   O 019 --    O 021              -0.17        2.61519
   O 018 --    O 024              -0.17        2.61519
   O 020 --    O 022              -0.17        2.61519
   O 006 --    O 022              -0.09        2.63334
   O 004 --    O 020              -0.09        2.63334
   O 008 --    O 024              -0.09        2.63334
   O 002 --    O 018              -0.09        2.63334
   O 005 --    O 021              -0.09        2.63335
   O 003 --    O 019              -0.09        2.63335
   O 007 --    O 023              -0.09        2.63335
   O 001 --    O 017              -0.09        2.63335
   O 005 --    O 019              -0.08        2.64862
   O 003 --    O 021              -0.08        2.64862
   O 001 --    O 023              -0.08        2.64862
   O 007 --    O 017              -0.08        2.64862
   O 006 --    O 020              -0.08        2.64862
   O 008 --    O 018              -0.08        2.64862
   O 004 --    O 022              -0.08        2.64862
   O 002 --    O 024              -0.08        2.64862
   O 016 --    O 024              -0.08        2.65086
   O 012 --    O 020              -0.08        2.65086
   O 014 --    O 022              -0.08        2.65086
   O 010 --    O 018              -0.08        2.65086
   O 009 --    O 017              -0.08        2.65087
   O 011 --    O 019              -0.08        2.65087
   O 013 --    O 021              -0.08        2.65087
   O 015 --    O 023              -0.08        2.65087
   O 003 --    O 016              -0.07        2.68928
   O 001 --    O 014              -0.07        2.68928
   O 005 --    O 010              -0.07        2.68928
   O 007 --    O 012              -0.07        2.68928
   O 006 --    O 009              -0.07        2.68928
   O 008 --    O 011              -0.07        2.68928
   O 004 --    O 015              -0.07        2.68928
   O 002 --    O 013              -0.07        2.68928
   O 023 --   Na 002              -0.01        2.69230
   O 017 --   Na 004              -0.01        2.69230
   O 021 --   Na 002              -0.01        2.69230
   O 019 --   Na 004              -0.01        2.69230
   O 018 --   Na 003              -0.01        2.69230
   O 020 --   Na 003              -0.01        2.69230
   O 024 --   Na 001              -0.01        2.69230
   O 022 --   Na 001              -0.01        2.69230
   O 001 --    O 003              -0.05        2.70013
   O 005 --    O 007              -0.05        2.70013
   O 006 --    O 008              -0.05        2.70013
   O 002 --    O 004              -0.05        2.70013
   O 008 --    O 013              -0.05        2.71379
   O 006 --    O 015              -0.05        2.71379
   O 004 --    O 009              -0.05        2.71379
   O 002 --    O 011              -0.05        2.71379
   O 007 --    O 014              -0.05        2.71379
   O 005 --    O 016              -0.05        2.71379
   O 003 --    O 010              -0.05        2.71379
   O 001 --    O 012              -0.05        2.71379
   O 020 --    O 024              -0.04        2.75609
   O 018 --    O 022              -0.04        2.75609
   O 019 --    O 023              -0.04        2.75610
   O 017 --    O 021              -0.04        2.75610
   O 008 --    O 016              -0.06        2.77506
   O 006 --    O 014              -0.06        2.77506
   O 004 --    O 012              -0.06        2.77506
   O 002 --    O 010              -0.06        2.77506
   O 003 --    O 011              -0.06        2.77506
   O 001 --    O 009              -0.06        2.77506
   O 005 --    O 013              -0.06        2.77506
   O 007 --    O 015              -0.06        2.77506
   O 014 --    O 016              -0.05        2.79014
   O 010 --    O 012              -0.05        2.79014
   O 009 --    O 011              -0.05        2.79014
   O 013 --    O 015              -0.05        2.79014
   O 001 --    O 016              -0.04        2.82091
   O 007 --    O 010              -0.04        2.82091
   O 003 --    O 014              -0.04        2.82091
   O 005 --    O 012              -0.04        2.82091
   O 004 --    O 013              -0.04        2.82091
   O 006 --    O 011              -0.04        2.82091
   O 002 --    O 015              -0.04        2.82091
   O 008 --    O 009              -0.04        2.82091
   O 016 --    O 019              -0.03        2.90267
   O 014 --    O 017              -0.03        2.90267
   O 010 --    O 021              -0.03        2.90267
   O 012 --    O 023              -0.03        2.90267
   O 015 --    O 020              -0.03        2.90268
   O 009 --    O 022              -0.03        2.90268
   O 013 --    O 018              -0.03        2.90268
   O 011 --    O 024              -0.03        2.90268
   O 004 --    O 006              -0.06        2.92361
   O 002 --    O 008              -0.06        2.92361
   O 003 --    O 005              -0.06        2.92361
   O 001 --    O 007              -0.06        2.92361
============================================================
 
 
Writing model to jadeite_4_30_GPa_cij__4__5.check
 
Writing analysis data to jadeite_4_30_GPa_cij__4__5.castep_bin
Initialisation time =      1.97 s
Calculation time    =   1727.60 s
Finalisation time   =      0.85 s
Total time          =   1730.42 s
Peak Memory Use     = 221880 kB
