 +-------------------------------------------------+
 |                                                 |
 |      CCC   AA    SSS  TTTTT  EEEEE  PPPP        |
 |     C     A  A  S       T    E      P   P       |
 |     C     AAAA   SS     T    EEE    PPPP        |
 |     C     A  A     S    T    E      P           |
 |      CCC  A  A  SSS     T    EEEEE  P           |
 |                                                 |
 +-------------------------------------------------+
 |                                                 |
 | Welcome to Academic Release CASTEP version 5.02 |
 | Ab Initio Total Energy Program                  |
 |                                                 |
 | Authors:                                        |
 | M. Segall, M. Probert, C. Pickard, P. Hasnip,   |
 | S. Clark, K. Refson, M. Payne                   |
 |                                                 |
 | Contributors:                                   |
 | P. Lindan, P. Haynes, J. White, V. Milman,      |
 | N. Govind, M. Gibson, P. Tulip, V. Cocula,      |
 | B. Montanari, D. Quigley, M. Glover,            |
 | L. Bernasconi, A. Perlov, M. Plummer            |
 |                                                 |
 | Copyright (c) 2000 - 2009                       |
 |                                                 |
 |     Distributed under the terms of an           |
 |     Agreement between the United Kingdom        |
 |     Car-Parrinello (UKCP) Consortium,           |
 |     Daresbury Laboratory and Accelrys, Inc.     |
 |                                                 |
 | Please cite                                     |
 |                                                 |
 |     "First principles methods using CASTEP"     |
 |                                                 |
 |         Zeitschrift fuer Kristallographie       |
 |           220(5-6) pp. 567-570 (2005)           |
 |                                                 |
 | S. J. Clark, M. D. Segall, C. J. Pickard,       |
 | P. J. Hasnip, M. J. Probert, K. Refson,         |
 | M. C. Payne                                     |
 |                                                 |
 |       in all publications arising from          |
 |              your use of CASTEP                 |
 |                                                 |
 +-------------------------------------------------+
 
 
 Pseudo atomic calculation performed for O 2s2 2p4
 
 Converged in 36 iterations to a total energy of -429.6485 eV
 
 
 Pseudo atomic calculation performed for Na 2s2 2p6 3s1
 
 Converged in 33 iterations to a total energy of -1302.8467 eV
 
 
 Pseudo atomic calculation performed for Al 3s2 3p1
 
 Converged in 20 iterations to a total energy of -52.7392 eV
 
 
 Pseudo atomic calculation performed for Si 3s2 3p2
 
 Converged in 21 iterations to a total energy of -101.9044 eV
 
Calculation parallelised over   36 nodes.
K-points are distributed over    3 groups, each containing   12 nodes.

 ************************************ Title ************************************
 

 ***************************** General Parameters ******************************
  
 output verbosity                               : normal  (1)
 write checkpoint data to                       : jadeite_4_30_GPa_cij__4__4.check
 type of calculation                            : geometry optimization
 stress calculation                             : on
 density difference calculation                 : off
 electron localisation func (ELF) calculation   : off
 Hirshfeld analysis                             : off
 unlimited duration calculation
 timing information                             : on
 memory usage estimate                          : on
 write final potential to formatted file        : off
 write final density to formatted file          : off
  
 output         length unit                     : A
 output           mass unit                     : amu
 output           time unit                     : ps
 output         charge unit                     : e
 output         energy unit                     : eV
 output          force unit                     : eV/A
 output       velocity unit                     : A/ps
 output       pressure unit                     : GPa
 output     inv_length unit                     : 1/A
 output      frequency unit                     : cm-1
 output force constant unit                     : eV/A**2
 output         volume unit                     : A**3
 output   IR intensity unit                     : (D/A)**2/amu
 output         dipole unit                     : D
 output         efield unit                     : eV/A/e
  
 wavefunctions paging                           : none
 data distribution                              : optimal for this architecture
 optimization strategy                          : maximize speed(+++)

 *********************** Exchange-Correlation Parameters ***********************
  
 using functional                               : Perdew Burke Ernzerhof
 Divergence correction                          : off
 DFT+D: Semi-empirical dispersion correction    : off

 ************************* Pseudopotential Parameters **************************
  
 pseudopotential representation                 : reciprocal space
 <beta|phi> representation                      : reciprocal space

 **************************** Basis Set Parameters *****************************
  
 plane wave basis set cut-off                   :   700.0000   eV
 finite basis set correction                    : none

 **************************** Electronic Parameters ****************************
  
 number of  electrons                           :  224.0    
 net charge of system                           :  0.000    
 net spin   of system                           :  0.000    
 number of  up  spins                           :  112.0    
 number of down spins                           :  112.0    
 treating system as non-spin-polarized
 number of bands                                :        112

 ********************* Electronic Minimization Parameters **********************
  
 Method: Treating system as non-metallic,
         and number of  SD  steps               :          1
         and number of  CG  steps               :          4
  
 total energy / atom convergence tol.           : 0.1000E-07   eV
 max force / atom convergence tol.              : ignored
 convergence tolerance window                   :          3   cycles
 max. number of SCF cycles                      :        100

 *********************** Population Analysis Parameters ************************
  
 Population analysis with cutoff                :  3.000       A

 ********************** Geometry Optimization Parameters ***********************
  
 optimization method                            : BFGS
 variable cell method                           : fixed basis quality
 max. number of steps                           :        300
 estimated bulk modulus                         :  500.0       GPa
 estimated <frequency>                          :  1668.       cm-1
 line minimiser tolerance                       :     0.4000
 total energy convergence tolerance             : 0.2000E-06   eV/atom
        max ionic |force| tolerance             : 0.1000E-02   eV/A
 max ionic |displacement| tolerance             : 0.1000E-02   A
   max |stress component| tolerance             : 0.1000E-02   GPa
 convergence tolerance window                   :          2   steps
 backup results every                           :          1   steps

 *******************************************************************************
  
 
                           -------------------------------
                                      Unit Cell
                           -------------------------------
        Real Lattice(A)                      Reciprocal Lattice(1/A)
   8.9813393   0.0000000  -2.8957499        0.6995822   0.0000000   0.0000000
   0.0000000   8.5603493   0.0000000        0.0000000   0.7339870   0.0000000
   0.0000000   0.0000000   5.2199179        0.3880933   0.0000000   1.2036943
 
                       Lattice parameters(A)       Cell Angles
                    a =    9.436621          alpha =   90.000000
                    b =    8.560349          beta  =  107.870281
                    c =    5.219918          gamma =   90.000000
 
                       Current cell volume =  401.325043       A**3
 
                           -------------------------------
                                     Cell Contents
                           -------------------------------
                         Total number of ions in cell =   40
                      Total number of species in cell =    4
                        Max number of any one species =   24
 
            xxxxxxxxxxxxxxxxxxxxxxxxxxxxxxxxxxxxxxxxxxxxxxxxxxxxxxxxxxxx
            x  Element    Atom        Fractional coordinates of atoms  x
            x            Number           u          v          w      x
            x----------------------------------------------------------x
            x  O            1         0.109277   0.076953   0.129205   x
            x  O            2         0.609279   0.576951   0.129208   x
            x  O            3         0.890723   0.076953   0.370795   x
            x  O            4         0.390721   0.576951   0.370792   x
            x  O            5         0.890723   0.923047   0.870795   x
            x  O            6         0.390721   0.423048   0.870792   x
            x  O            7         0.109277   0.923047   0.629205   x
            x  O            8         0.609279   0.423048   0.629208   x
            x  O            9         0.361047   0.263746   0.295383   x
            x  O           10         0.861046   0.763747   0.295382   x
            x  O           11         0.638953   0.263746   0.204617   x
            x  O           12         0.138954   0.763747   0.204618   x
            x  O           13         0.638953   0.736253   0.704617   x
            x  O           14         0.138954   0.236253   0.704618   x
            x  O           15         0.361047   0.736253   0.795383   x
            x  O           16         0.861046   0.236253   0.795382   x
            x  O           17         0.354029   0.008469   1.005059   x
            x  O           18         0.854032   0.508466   1.005069   x
            x  O           19         0.645971   0.008469   0.494941   x
            x  O           20         0.145968   0.508466   0.494931   x
            x  O           21         0.645971   0.991531  -0.005059   x
            x  O           22         0.145968   0.491534  -0.005069   x
            x  O           23         0.354029   0.991531   0.505059   x
            x  O           24         0.854032   0.491534   0.505069   x
            x  Na           1         0.000000   0.301230   0.250000   x
            x  Na           2         0.500000   0.801235   0.250000   x
            x  Na           3         0.000000   0.698770   0.750000   x
            x  Na           4         0.500000   0.198765   0.750000   x
            x  Al           1         0.000000   0.906276   0.250000   x
            x  Al           2         0.500000   0.406276   0.250000   x
            x  Al           3         0.000000   0.093724   0.750000   x
            x  Al           4         0.500000   0.593723   0.750000   x
            x  Si           1         0.290869   0.093825   0.228100   x
            x  Si           2         0.790871   0.593824   0.228106   x
            x  Si           3         0.709131   0.093825   0.271900   x
            x  Si           4         0.209129   0.593824   0.271894   x
            x  Si           5         0.709131   0.906175   0.771900   x
            x  Si           6         0.209129   0.406176   0.771894   x
            x  Si           7         0.290869   0.906175   0.728100   x
            x  Si           8         0.790871   0.406176   0.728106   x
            xxxxxxxxxxxxxxxxxxxxxxxxxxxxxxxxxxxxxxxxxxxxxxxxxxxxxxxxxxxx
 
 
                         No user defined ionic velocities
 
                           -------------------------------
                                   Details of Species
                           -------------------------------
 
                               Mass of species in AMU
                                    O   15.9994000
                                    Na   22.9897700
                                    Al   26.9815400
                                    Si   28.0855000
 
                          Electric Quadrupole Moment (Barn)
                                    O   -0.0255800 Isotope 17
                                    Na    0.1040000 Isotope 23
                                    Al    0.1466000 Isotope 27
                                    Si    1.0000000 No Isotope Defined
 
                          Files used for pseudopotentials:
                                    O O_00PBE.usp
                                    Na Na_00PBE.usp
                                    Al Al_00PBE.usp
                                    Si Si_00PBE.usp
 
                           -------------------------------
                              k-Points For BZ Sampling
                           -------------------------------
                       MP grid size for SCF calculation is  2  2  3
                         Number of kpoints used = 3
 
             +++++++++++++++++++++++++++++++++++++++++++++++++++++++
             +  Number       Fractional coordinates        Weight  +
             +-----------------------------------------------------+
             +     1  -0.250000  -0.250000   0.333333   0.3333333  +
             +     2   0.250000   0.250000   0.000000   0.3333333  +
             +     3   0.250000   0.250000   0.333333   0.3333333  +
             +++++++++++++++++++++++++++++++++++++++++++++++++++++++
 
                           -------------------------------
                               Symmetry and Constraints
                           -------------------------------
 
                      Number of symmetry operations   = 4
                      Number of ionic constraints     = 3
                      Maximum deviation from symmetry = 0.173858E-14     ANG
               Point group of crystal =     5: C2h, 2/m, 2/m
           Set iprint > 1 for details on symmetry rotations/translations
 
                          Centre of mass is constrained
             Set iprint > 1 for details of linear ionic constraints
 
                         Number of cell constraints= 6
                         Cell constraints are:  0 0 0 0 0 0
 
                         External pressure/stress (GPa)
                          4.30000   0.00000   0.00000
                                    4.30000   0.00000
                                              4.30000
  
+---------------- MEMORY AND SCRATCH DISK ESTIMATES PER NODE -----------------+
|                                                     Memory          Disk    |
| Model and support data                               60.0 MB         0.0 MB |
| Electronic energy minimisation requirements          16.7 MB         0.0 MB |
|                                               ----------------------------- |
| Approx. total storage required per node              76.8 MB         0.0 MB |
|                                                                             |
| Requirements will fluctuate during execution and may exceed these estimates |
+-----------------------------------------------------------------------------+
------------------------------------------------------------------------ <-- SCF
SCF loop      Energy                           Energy gain       Timer   <-- SCF
                                               per atom          (sec)   <-- SCF
------------------------------------------------------------------------ <-- SCF
Initial  -1.66652963E+003                                          5.21  <-- SCF
      1  -1.63395458E+004                    3.66825405E+002      17.61  <-- SCF
      2  -1.68186768E+004                    1.19782730E+001      29.68  <-- SCF
      3  -1.68454582E+004                    6.69536384E-001      42.12  <-- SCF
      4  -1.68461007E+004                    1.60617323E-002      54.32  <-- SCF
      5  -1.68461067E+004                    1.51419552E-004      66.14  <-- SCF
      6  -1.68461069E+004                    3.48882557E-006      78.60  <-- SCF
      7  -1.68461069E+004                    1.05546712E-007      90.19  <-- SCF
      8  -1.68461069E+004                    3.33634466E-009     102.35  <-- SCF
      9  -1.68461069E+004                    1.07965812E-010     114.94  <-- SCF
------------------------------------------------------------------------ <-- SCF
 
Final energy =  -16846.10689095     eV
(energy not corrected for finite basis set)
 
 
Writing model to jadeite_4_30_GPa_cij__4__4.check
 
+---------------- MEMORY AND SCRATCH DISK ESTIMATES PER NODE -----------------+
|                                                     Memory          Disk    |
| Model and support data                               53.1 MB         0.0 MB |
| Geometry minimisation requirements                   19.5 MB         0.0 MB |
|                                               ----------------------------- |
| Approx. total storage required per node              72.6 MB         0.0 MB |
|                                                                             |
| Requirements will fluctuate during execution and may exceed these estimates |
+-----------------------------------------------------------------------------+
 
 
 *********************************** Forces ***********************************
 *                                                                            *
 *                        Cartesian components (eV/A)                         *
 * -------------------------------------------------------------------------- *
 *                   x                    y                    z              *
 *                                                                            *
 * O         1      0.01150              0.01099             -0.01595         *
 * O         2      0.01134              0.01104             -0.01599         *
 * O         3     -0.01150              0.01099              0.01595         *
 * O         4     -0.01134              0.01104              0.01599         *
 * O         5     -0.01150             -0.01099              0.01595         *
 * O         6     -0.01134             -0.01104              0.01599         *
 * O         7      0.01150             -0.01099             -0.01595         *
 * O         8      0.01134             -0.01104             -0.01599         *
 * O         9      0.02785              0.02498             -0.02007         *
 * O        10      0.02797              0.02505             -0.02006         *
 * O        11     -0.02785              0.02498              0.02007         *
 * O        12     -0.02797              0.02505              0.02006         *
 * O        13     -0.02785             -0.02498              0.02007         *
 * O        14     -0.02797             -0.02505              0.02006         *
 * O        15      0.02785             -0.02498             -0.02007         *
 * O        16      0.02797             -0.02505             -0.02006         *
 * O        17     -0.00420              0.06717              0.12845         *
 * O        18     -0.00427              0.06724              0.12841         *
 * O        19      0.00420              0.06717             -0.12845         *
 * O        20      0.00427              0.06724             -0.12841         *
 * O        21      0.00420             -0.06717             -0.12845         *
 * O        22      0.00427             -0.06724             -0.12841         *
 * O        23     -0.00420             -0.06717              0.12845         *
 * O        24     -0.00427             -0.06724              0.12841         *
 * Na        1      0.00000             -0.01552              0.00000         *
 * Na        2      0.00000             -0.01563              0.00000         *
 * Na        3      0.00000              0.01552              0.00000         *
 * Na        4      0.00000              0.01563              0.00000         *
 * Al        1      0.00000             -0.03176              0.00000         *
 * Al        2      0.00000             -0.03165              0.00000         *
 * Al        3      0.00000              0.03176              0.00000         *
 * Al        4      0.00000              0.03165              0.00000         *
 * Si        1      0.00701             -0.01068             -0.10336         *
 * Si        2      0.00679             -0.01065             -0.10338         *
 * Si        3     -0.00701             -0.01068              0.10336         *
 * Si        4     -0.00679             -0.01065              0.10338         *
 * Si        5     -0.00701              0.01068              0.10336         *
 * Si        6     -0.00679              0.01065              0.10338         *
 * Si        7      0.00701              0.01068             -0.10336         *
 * Si        8      0.00679              0.01065             -0.10338         *
 *                                                                            *
 ******************************************************************************
 BFGS: finished iteration     0 with enthalpy= -1.68353359E+004 eV
  
 +-----------+-----------------+-----------------+------------+-----+ <-- BFGS
 | Parameter |      value      |    tolerance    |    units   | OK? | <-- BFGS
 +-----------+-----------------+-----------------+------------+-----+ <-- BFGS
 |  dE/ion   |   0.000000E+000 |   2.000000E-007 |         eV | No  | <-- BFGS
 |  |F|max   |   1.450140E-001 |   1.000000E-003 |       eV/A | No  | <-- BFGS
 |  |dR|max  |   0.000000E+000 |   1.000000E-003 |          A | No  | <-- BFGS
 +-----------+-----------------+-----------------+------------+-----+ <-- BFGS
  

================================================================================
 Starting BFGS iteration          1 ...
================================================================================
 
Writing model to jadeite_4_30_GPa_cij__4__4.check
  
 +------------+-------------+-------------+-----------------+ <-- min BFGS
 |    Step    |   lambda    |   F.delta   |    enthalpy     | <-- min BFGS
 +------------+-------------+-------------+-----------------+ <-- min BFGS
 |  previous  |    0.000000 |    0.000049 |   -16835.335932 | <-- min BFGS
 +------------+-------------+-------------+-----------------+ <-- min BFGS
  

--------------------------------------------------------------------------------
 BFGS: starting iteration         1 with trial guess (lambda=  1.000000)
--------------------------------------------------------------------------------
 
                           -------------------------------
                                     Cell Contents
                           -------------------------------
 
            xxxxxxxxxxxxxxxxxxxxxxxxxxxxxxxxxxxxxxxxxxxxxxxxxxxxxxxxxxxx
            x  Element    Atom        Fractional coordinates of atoms  x
            x            Number           u          v          w      x
            x----------------------------------------------------------x
            x  O            1         0.109283   0.076959   0.129194   x
            x  O            2         0.609285   0.576958   0.129197   x
            x  O            3         0.890717   0.076959   0.370806   x
            x  O            4         0.390715   0.576958   0.370803   x
            x  O            5         0.890717   0.923041   0.870806   x
            x  O            6         0.390715   0.423042   0.870803   x
            x  O            7         0.109283   0.923041   0.629194   x
            x  O            8         0.609285   0.423042   0.629197   x
            x  O            9         0.361062   0.263761   0.295373   x
            x  O           10         0.861061   0.763761   0.295372   x
            x  O           11         0.638938   0.263761   0.204627   x
            x  O           12         0.138939   0.763761   0.204628   x
            x  O           13         0.638938   0.736239   0.704627   x
            x  O           14         0.138939   0.236239   0.704628   x
            x  O           15         0.361062   0.736239   0.795373   x
            x  O           16         0.861061   0.236239   0.795372   x
            x  O           17         0.354027   0.008507   1.005177   x
            x  O           18         0.854030   0.508504   1.005187   x
            x  O           19         0.645973   0.008507   0.494823   x
            x  O           20         0.145970   0.508504   0.494813   x
            x  O           21         0.645973   0.991493  -0.005177   x
            x  O           22         0.145970   0.491496  -0.005187   x
            x  O           23         0.354027   0.991493   0.505177   x
            x  O           24         0.854030   0.491496   0.505187   x
            x  Na           1         0.000000   0.301221   0.250000   x
            x  Na           2         0.500000   0.801226   0.250000   x
            x  Na           3         0.000000   0.698779   0.750000   x
            x  Na           4         0.500000   0.198774   0.750000   x
            x  Al           1         0.000000   0.906259   0.250000   x
            x  Al           2         0.500000   0.406259   0.250000   x
            x  Al           3         0.000000   0.093741   0.750000   x
            x  Al           4         0.500000   0.593741   0.750000   x
            x  Si           1         0.290873   0.093818   0.228006   x
            x  Si           2         0.790875   0.593817   0.228012   x
            x  Si           3         0.709127   0.093818   0.271994   x
            x  Si           4         0.209125   0.593817   0.271988   x
            x  Si           5         0.709127   0.906182   0.771994   x
            x  Si           6         0.209125   0.406183   0.771988   x
            x  Si           7         0.290873   0.906182   0.728006   x
            x  Si           8         0.790875   0.406183   0.728012   x
            xxxxxxxxxxxxxxxxxxxxxxxxxxxxxxxxxxxxxxxxxxxxxxxxxxxxxxxxxxxx
 
 
------------------------------------------------------------------------ <-- SCF
SCF loop      Energy                           Energy gain       Timer   <-- SCF
                                               per atom          (sec)   <-- SCF
------------------------------------------------------------------------ <-- SCF
Initial  -1.68461020E+004                                        122.32  <-- SCF
      1  -1.68461080E+004                    1.51084145E-004     134.70  <-- SCF
      2  -1.68461080E+004                    5.03060358E-008     146.66  <-- SCF
      3  -1.68461080E+004                    8.77415568E-010     157.89  <-- SCF
      4  -1.68461080E+004                    2.16550339E-011     171.06  <-- SCF
------------------------------------------------------------------------ <-- SCF
 
Final energy =  -16846.10803264     eV
(energy not corrected for finite basis set)
 
 
 *********************************** Forces ***********************************
 *                                                                            *
 *                        Cartesian components (eV/A)                         *
 * -------------------------------------------------------------------------- *
 *                   x                    y                    z              *
 *                                                                            *
 * O         1      0.01106              0.01020             -0.01414         *
 * O         2      0.01090              0.01025             -0.01418         *
 * O         3     -0.01106              0.01020              0.01414         *
 * O         4     -0.01090              0.01025              0.01418         *
 * O         5     -0.01106             -0.01020              0.01414         *
 * O         6     -0.01090             -0.01025              0.01418         *
 * O         7      0.01106             -0.01020             -0.01414         *
 * O         8      0.01090             -0.01025             -0.01418         *
 * O         9      0.02269              0.01562             -0.01725         *
 * O        10      0.02279              0.01565             -0.01725         *
 * O        11     -0.02269              0.01562              0.01725         *
 * O        12     -0.02279              0.01565              0.01725         *
 * O        13     -0.02269             -0.01562              0.01725         *
 * O        14     -0.02279             -0.01565              0.01725         *
 * O        15      0.02269             -0.01562             -0.01725         *
 * O        16      0.02279             -0.01565             -0.01725         *
 * O        17     -0.00156              0.04259              0.09133         *
 * O        18     -0.00164              0.04266              0.09129         *
 * O        19      0.00156              0.04259             -0.09133         *
 * O        20      0.00164              0.04266             -0.09129         *
 * O        21      0.00156             -0.04259             -0.09133         *
 * O        22      0.00164             -0.04266             -0.09129         *
 * O        23     -0.00156             -0.04259              0.09133         *
 * O        24     -0.00164             -0.04266              0.09129         *
 * Na        1      0.00000             -0.01582              0.00000         *
 * Na        2      0.00000             -0.01593              0.00000         *
 * Na        3      0.00000              0.01582              0.00000         *
 * Na        4      0.00000              0.01593              0.00000         *
 * Al        1      0.00000             -0.02805              0.00000         *
 * Al        2      0.00000             -0.02796              0.00000         *
 * Al        3      0.00000              0.02805              0.00000         *
 * Al        4      0.00000              0.02796              0.00000         *
 * Si        1      0.00763             -0.00364             -0.06875         *
 * Si        2      0.00746             -0.00359             -0.06877         *
 * Si        3     -0.00763             -0.00364              0.06875         *
 * Si        4     -0.00746             -0.00359              0.06877         *
 * Si        5     -0.00763              0.00364              0.06875         *
 * Si        6     -0.00746              0.00359              0.06877         *
 * Si        7      0.00763              0.00364             -0.06875         *
 * Si        8      0.00746              0.00359             -0.06877         *
 *                                                                            *
 ******************************************************************************
  
 +------------+-------------+-------------+-----------------+ <-- min BFGS
 |    Step    |   lambda    |   F.delta   |    enthalpy     | <-- min BFGS
 +------------+-------------+-------------+-----------------+ <-- min BFGS
 |  previous  |    0.000000 |    0.000049 |   -16835.335932 | <-- min BFGS
 | trial step |    1.000000 |    0.000034 |   -16835.337074 | <-- min BFGS
 +------------+-------------+-------------+-----------------+ <-- min BFGS
  

--------------------------------------------------------------------------------
 BFGS: improving iteration         1 with line minimization (lambda=  3.280091)
--------------------------------------------------------------------------------
 
                           -------------------------------
                                     Cell Contents
                           -------------------------------
 
            xxxxxxxxxxxxxxxxxxxxxxxxxxxxxxxxxxxxxxxxxxxxxxxxxxxxxxxxxxxx
            x  Element    Atom        Fractional coordinates of atoms  x
            x            Number           u          v          w      x
            x----------------------------------------------------------x
            x  O            1         0.109297   0.076973   0.129168   x
            x  O            2         0.609299   0.576972   0.129171   x
            x  O            3         0.890703   0.076973   0.370832   x
            x  O            4         0.390701   0.576972   0.370829   x
            x  O            5         0.890703   0.923027   0.870832   x
            x  O            6         0.390701   0.423028   0.870829   x
            x  O            7         0.109297   0.923027   0.629168   x
            x  O            8         0.609299   0.423028   0.629171   x
            x  O            9         0.361096   0.263793   0.295349   x
            x  O           10         0.861095   0.763793   0.295348   x
            x  O           11         0.638904   0.263793   0.204651   x
            x  O           12         0.138905   0.763793   0.204652   x
            x  O           13         0.638904   0.736207   0.704651   x
            x  O           14         0.138905   0.236207   0.704652   x
            x  O           15         0.361096   0.736207   0.795349   x
            x  O           16         0.861095   0.236207   0.795348   x
            x  O           17         0.354022   0.008594   1.005445   x
            x  O           18         0.854024   0.508591   1.005455   x
            x  O           19         0.645978   0.008594   0.494555   x
            x  O           20         0.145976   0.508591   0.494545   x
            x  O           21         0.645978   0.991406  -0.005445   x
            x  O           22         0.145976   0.491409  -0.005455   x
            x  O           23         0.354022   0.991406   0.505445   x
            x  O           24         0.854024   0.491409   0.505455   x
            x  Na           1         0.000000   0.301201   0.250000   x
            x  Na           2         0.500000   0.801206   0.250000   x
            x  Na           3         0.000000   0.698799   0.750000   x
            x  Na           4         0.500000   0.198794   0.750000   x
            x  Al           1         0.000000   0.906218   0.250000   x
            x  Al           2         0.500000   0.406218   0.250000   x
            x  Al           3         0.000000   0.093782   0.750000   x
            x  Al           4         0.500000   0.593782   0.750000   x
            x  Si           1         0.290881   0.093805   0.227793   x
            x  Si           2         0.790883   0.593804   0.227798   x
            x  Si           3         0.709119   0.093805   0.272207   x
            x  Si           4         0.209117   0.593804   0.272202   x
            x  Si           5         0.709119   0.906195   0.772207   x
            x  Si           6         0.209117   0.406196   0.772202   x
            x  Si           7         0.290881   0.906195   0.727793   x
            x  Si           8         0.790883   0.406196   0.727798   x
            xxxxxxxxxxxxxxxxxxxxxxxxxxxxxxxxxxxxxxxxxxxxxxxxxxxxxxxxxxxx
 
 
------------------------------------------------------------------------ <-- SCF
SCF loop      Energy                           Energy gain       Timer   <-- SCF
                                               per atom          (sec)   <-- SCF
------------------------------------------------------------------------ <-- SCF
Initial  -1.68460892E+004                                        176.15  <-- SCF
      1  -1.68461091E+004                    4.96068582E-004     187.98  <-- SCF
      2  -1.68461091E+004                    1.82786738E-007     199.97  <-- SCF
      3  -1.68461091E+004                    3.27594259E-009     212.65  <-- SCF
      4  -1.68461091E+004                    7.44005092E-011     225.40  <-- SCF
------------------------------------------------------------------------ <-- SCF
 
Final energy =  -16846.10909811     eV
(energy not corrected for finite basis set)
 
 
 *********************************** Forces ***********************************
 *                                                                            *
 *                        Cartesian components (eV/A)                         *
 * -------------------------------------------------------------------------- *
 *                   x                    y                    z              *
 *                                                                            *
 * O         1      0.01009              0.00838             -0.01001         *
 * O         2      0.00994              0.00843             -0.01004         *
 * O         3     -0.01009              0.00838              0.01001         *
 * O         4     -0.00994              0.00843              0.01004         *
 * O         5     -0.01009             -0.00838              0.01001         *
 * O         6     -0.00994             -0.00843              0.01004         *
 * O         7      0.01009             -0.00838             -0.01001         *
 * O         8      0.00994             -0.00843             -0.01004         *
 * O         9      0.01089             -0.00571             -0.01083         *
 * O        10      0.01093             -0.00576             -0.01082         *
 * O        11     -0.01089             -0.00571              0.01083         *
 * O        12     -0.01093             -0.00576              0.01082         *
 * O        13     -0.01089              0.00571              0.01083         *
 * O        14     -0.01093              0.00576              0.01082         *
 * O        15      0.01089              0.00571             -0.01083         *
 * O        16      0.01093              0.00576             -0.01082         *
 * O        17      0.00492             -0.01347              0.00651         *
 * O        18      0.00482             -0.01341              0.00646         *
 * O        19     -0.00492             -0.01347             -0.00651         *
 * O        20     -0.00482             -0.01341             -0.00646         *
 * O        21     -0.00492              0.01347             -0.00651         *
 * O        22     -0.00482              0.01341             -0.00646         *
 * O        23      0.00492              0.01347              0.00651         *
 * O        24      0.00482              0.01341              0.00646         *
 * Na        1      0.00000             -0.01650              0.00000         *
 * Na        2      0.00000             -0.01660              0.00000         *
 * Na        3      0.00000              0.01650              0.00000         *
 * Na        4      0.00000              0.01660              0.00000         *
 * Al        1      0.00000             -0.01956              0.00000         *
 * Al        2      0.00000             -0.01952              0.00000         *
 * Al        3      0.00000              0.01956              0.00000         *
 * Al        4      0.00000              0.01952              0.00000         *
 * Si        1      0.00856              0.01303              0.01038         *
 * Si        2      0.00850              0.01313              0.01037         *
 * Si        3     -0.00856              0.01303             -0.01038         *
 * Si        4     -0.00850              0.01313             -0.01037         *
 * Si        5     -0.00856             -0.01303             -0.01038         *
 * Si        6     -0.00850             -0.01313             -0.01037         *
 * Si        7      0.00856             -0.01303              0.01038         *
 * Si        8      0.00850             -0.01313              0.01037         *
 *                                                                            *
 ******************************************************************************
  
 +------------+-------------+-------------+-----------------+ <-- min BFGS
 |    Step    |   lambda    |   F.delta   |    enthalpy     | <-- min BFGS
 +------------+-------------+-------------+-----------------+ <-- min BFGS
 |  previous  |    0.000000 |    0.000049 |   -16835.335932 | <-- min BFGS
 | trial step |    1.000000 |    0.000034 |   -16835.337074 | <-- min BFGS
 |  line step |    3.280091 |    0.000000 |   -16835.338140 | <-- min BFGS
 +------------+-------------+-------------+-----------------+ <-- min BFGS
  
 BFGS: finished iteration     1 with enthalpy= -1.68353381E+004 eV
  
 +-----------+-----------------+-----------------+------------+-----+ <-- BFGS
 | Parameter |      value      |    tolerance    |    units   | OK? | <-- BFGS
 +-----------+-----------------+-----------------+------------+-----+ <-- BFGS
 |  dE/ion   |   5.517890E-005 |   2.000000E-007 |         eV | No  | <-- BFGS
 |  |F|max   |   1.955898E-002 |   1.000000E-003 |       eV/A | No  | <-- BFGS
 |  |dR|max  |   2.300424E-003 |   1.000000E-003 |          A | No  | <-- BFGS
 +-----------+-----------------+-----------------+------------+-----+ <-- BFGS
  

================================================================================
 Starting BFGS iteration          2 ...
================================================================================
 
Writing model to jadeite_4_30_GPa_cij__4__4.check
  
 +------------+-------------+-------------+-----------------+ <-- min BFGS
 |    Step    |   lambda    |   F.delta   |    enthalpy     | <-- min BFGS
 +------------+-------------+-------------+-----------------+ <-- min BFGS
 |  previous  |    0.000000 |    0.000002 |   -16835.338140 | <-- min BFGS
 +------------+-------------+-------------+-----------------+ <-- min BFGS
  

--------------------------------------------------------------------------------
 BFGS: starting iteration         2 with trial guess (lambda=  1.000000)
--------------------------------------------------------------------------------
 
                           -------------------------------
                                     Cell Contents
                           -------------------------------
 
            xxxxxxxxxxxxxxxxxxxxxxxxxxxxxxxxxxxxxxxxxxxxxxxxxxxxxxxxxxxx
            x  Element    Atom        Fractional coordinates of atoms  x
            x            Number           u          v          w      x
            x----------------------------------------------------------x
            x  O            1         0.109303   0.076978   0.129161   x
            x  O            2         0.609305   0.576977   0.129164   x
            x  O            3         0.890697   0.076978   0.370839   x
            x  O            4         0.390695   0.576977   0.370836   x
            x  O            5         0.890697   0.923022   0.870839   x
            x  O            6         0.390695   0.423023   0.870836   x
            x  O            7         0.109303   0.923022   0.629161   x
            x  O            8         0.609305   0.423023   0.629164   x
            x  O            9         0.361103   0.263790   0.295342   x
            x  O           10         0.861102   0.763791   0.295341   x
            x  O           11         0.638897   0.263790   0.204658   x
            x  O           12         0.138898   0.763791   0.204659   x
            x  O           13         0.638897   0.736210   0.704658   x
            x  O           14         0.138898   0.236209   0.704659   x
            x  O           15         0.361103   0.736210   0.795342   x
            x  O           16         0.861102   0.236209   0.795341   x
            x  O           17         0.354024   0.008588   1.005457   x
            x  O           18         0.854027   0.508584   1.005467   x
            x  O           19         0.645976   0.008588   0.494543   x
            x  O           20         0.145973   0.508584   0.494533   x
            x  O           21         0.645976   0.991412  -0.005457   x
            x  O           22         0.145973   0.491416  -0.005467   x
            x  O           23         0.354024   0.991412   0.505457   x
            x  O           24         0.854027   0.491416   0.505467   x
            x  Na           1         0.000000   0.301192   0.250000   x
            x  Na           2         0.500000   0.801196   0.250000   x
            x  Na           3         0.000000   0.698808   0.750000   x
            x  Na           4         0.500000   0.198804   0.750000   x
            x  Al           1         0.000000   0.906206   0.250000   x
            x  Al           2         0.500000   0.406206   0.250000   x
            x  Al           3         0.000000   0.093794   0.750000   x
            x  Al           4         0.500000   0.593794   0.750000   x
            x  Si           1         0.290886   0.093812   0.227801   x
            x  Si           2         0.790888   0.593811   0.227807   x
            x  Si           3         0.709114   0.093812   0.272199   x
            x  Si           4         0.209112   0.593811   0.272193   x
            x  Si           5         0.709114   0.906188   0.772199   x
            x  Si           6         0.209112   0.406189   0.772193   x
            x  Si           7         0.290886   0.906188   0.727801   x
            x  Si           8         0.790888   0.406189   0.727807   x
            xxxxxxxxxxxxxxxxxxxxxxxxxxxxxxxxxxxxxxxxxxxxxxxxxxxxxxxxxxxx
 
 
------------------------------------------------------------------------ <-- SCF
SCF loop      Energy                           Energy gain       Timer   <-- SCF
                                               per atom          (sec)   <-- SCF
------------------------------------------------------------------------ <-- SCF
Initial  -1.68461088E+004                                        231.21  <-- SCF
      1  -1.68461092E+004                    7.74827150E-006     242.93  <-- SCF
      2  -1.68461092E+004                    3.50332044E-009     255.31  <-- SCF
      3  -1.68461092E+004                    3.94430974E-011     268.04  <-- SCF
------------------------------------------------------------------------ <-- SCF
 
Final energy =  -16846.10915234     eV
(energy not corrected for finite basis set)
 
 
 *********************************** Forces ***********************************
 *                                                                            *
 *                        Cartesian components (eV/A)                         *
 * -------------------------------------------------------------------------- *
 *                   x                    y                    z              *
 *                                                                            *
 * O         1      0.00910              0.00790             -0.00941         *
 * O         2      0.00897              0.00795             -0.00944         *
 * O         3     -0.00910              0.00790              0.00941         *
 * O         4     -0.00897              0.00795              0.00944         *
 * O         5     -0.00910             -0.00790              0.00941         *
 * O         6     -0.00897             -0.00795              0.00944         *
 * O         7      0.00910             -0.00790             -0.00941         *
 * O         8      0.00897             -0.00795             -0.00944         *
 * O         9      0.01110             -0.00396             -0.00994         *
 * O        10      0.01114             -0.00399             -0.00992         *
 * O        11     -0.01110             -0.00396              0.00994         *
 * O        12     -0.01114             -0.00399              0.00992         *
 * O        13     -0.01110              0.00396              0.00994         *
 * O        14     -0.01114              0.00399              0.00992         *
 * O        15      0.01110              0.00396             -0.00994         *
 * O        16      0.01114              0.00399             -0.00992         *
 * O        17      0.00456             -0.01351              0.00649         *
 * O        18      0.00446             -0.01345              0.00644         *
 * O        19     -0.00456             -0.01351             -0.00649         *
 * O        20     -0.00446             -0.01345             -0.00644         *
 * O        21     -0.00456              0.01351             -0.00649         *
 * O        22     -0.00446              0.01345             -0.00644         *
 * O        23      0.00456              0.01351              0.00649         *
 * O        24      0.00446              0.01345              0.00644         *
 * Na        1      0.00000             -0.01612              0.00000         *
 * Na        2      0.00000             -0.01622              0.00000         *
 * Na        3      0.00000              0.01612              0.00000         *
 * Na        4      0.00000              0.01622              0.00000         *
 * Al        1      0.00000             -0.01750              0.00000         *
 * Al        2      0.00000             -0.01747              0.00000         *
 * Al        3      0.00000              0.01750              0.00000         *
 * Al        4      0.00000              0.01747              0.00000         *
 * Si        1      0.00799              0.00930              0.00978         *
 * Si        2      0.00792              0.00937              0.00977         *
 * Si        3     -0.00799              0.00930             -0.00978         *
 * Si        4     -0.00792              0.00937             -0.00977         *
 * Si        5     -0.00799             -0.00930             -0.00978         *
 * Si        6     -0.00792             -0.00937             -0.00977         *
 * Si        7      0.00799             -0.00930              0.00978         *
 * Si        8      0.00792             -0.00937              0.00977         *
 *                                                                            *
 ******************************************************************************
  
 +------------+-------------+-------------+-----------------+ <-- min BFGS
 |    Step    |   lambda    |   F.delta   |    enthalpy     | <-- min BFGS
 +------------+-------------+-------------+-----------------+ <-- min BFGS
 |  previous  |    0.000000 |    0.000002 |   -16835.338140 | <-- min BFGS
 | trial step |    1.000000 |    0.000002 |   -16835.338194 | <-- min BFGS
 +------------+-------------+-------------+-----------------+ <-- min BFGS
  

--------------------------------------------------------------------------------
 BFGS: improving iteration         2 with line minimization (lambda= 12.233454)
--------------------------------------------------------------------------------
 
                           -------------------------------
                                     Cell Contents
                           -------------------------------
 
            xxxxxxxxxxxxxxxxxxxxxxxxxxxxxxxxxxxxxxxxxxxxxxxxxxxxxxxxxxxx
            x  Element    Atom        Fractional coordinates of atoms  x
            x            Number           u          v          w      x
            x----------------------------------------------------------x
            x  O            1         0.109367   0.077034   0.129086   x
            x  O            2         0.609367   0.577033   0.129088   x
            x  O            3         0.890633   0.077034   0.370914   x
            x  O            4         0.390633   0.577033   0.370912   x
            x  O            5         0.890633   0.922966   0.870914   x
            x  O            6         0.390633   0.422967   0.870912   x
            x  O            7         0.109367   0.922966   0.629086   x
            x  O            8         0.609367   0.422967   0.629088   x
            x  O            9         0.361175   0.263760   0.295262   x
            x  O           10         0.861174   0.763760   0.295261   x
            x  O           11         0.638825   0.263760   0.204738   x
            x  O           12         0.138826   0.763760   0.204739   x
            x  O           13         0.638825   0.736240   0.704738   x
            x  O           14         0.138826   0.236240   0.704739   x
            x  O           15         0.361175   0.736240   0.795262   x
            x  O           16         0.861174   0.236240   0.795261   x
            x  O           17         0.354053   0.008519   1.005592   x
            x  O           18         0.854055   0.508516   1.005600   x
            x  O           19         0.645947   0.008519   0.494408   x
            x  O           20         0.145945   0.508516   0.494400   x
            x  O           21         0.645947   0.991481  -0.005592   x
            x  O           22         0.145945   0.491484  -0.005600   x
            x  O           23         0.354053   0.991481   0.505592   x
            x  O           24         0.854055   0.491484   0.505600   x
            x  Na           1         0.000000   0.301083   0.250000   x
            x  Na           2         0.500000   0.801087   0.250000   x
            x  Na           3         0.000000   0.698917   0.750000   x
            x  Na           4         0.500000   0.198913   0.750000   x
            x  Al           1         0.000000   0.906074   0.250000   x
            x  Al           2         0.500000   0.406075   0.250000   x
            x  Al           3         0.000000   0.093926   0.750000   x
            x  Al           4         0.500000   0.593925   0.750000   x
            x  Si           1         0.290939   0.093892   0.227898   x
            x  Si           2         0.790941   0.593892   0.227903   x
            x  Si           3         0.709061   0.093892   0.272102   x
            x  Si           4         0.209059   0.593892   0.272097   x
            x  Si           5         0.709061   0.906108   0.772102   x
            x  Si           6         0.209059   0.406108   0.772097   x
            x  Si           7         0.290939   0.906108   0.727898   x
            x  Si           8         0.790941   0.406108   0.727903   x
            xxxxxxxxxxxxxxxxxxxxxxxxxxxxxxxxxxxxxxxxxxxxxxxxxxxxxxxxxxxx
 
 
------------------------------------------------------------------------ <-- SCF
SCF loop      Energy                           Energy gain       Timer   <-- SCF
                                               per atom          (sec)   <-- SCF
------------------------------------------------------------------------ <-- SCF
Initial  -1.68460945E+004                                        273.21  <-- SCF
      1  -1.68461094E+004                    3.72233197E-004     285.44  <-- SCF
      2  -1.68461094E+004                    1.78588446E-007     298.60  <-- SCF
      3  -1.68461094E+004                    1.13534249E-009     311.41  <-- SCF
      4  -1.68461094E+004                    2.33565008E-011     325.91  <-- SCF
------------------------------------------------------------------------ <-- SCF
 
Final energy =  -16846.10944344     eV
(energy not corrected for finite basis set)
 
 
 *********************************** Forces ***********************************
 *                                                                            *
 *                        Cartesian components (eV/A)                         *
 * -------------------------------------------------------------------------- *
 *                   x                    y                    z              *
 *                                                                            *
 * O         1     -0.00197              0.00249             -0.00266         *
 * O         2     -0.00186              0.00257             -0.00265         *
 * O         3      0.00197              0.00249              0.00266         *
 * O         4      0.00186              0.00257              0.00265         *
 * O         5      0.00197             -0.00249              0.00266         *
 * O         6      0.00186             -0.00257              0.00265         *
 * O         7     -0.00197             -0.00249             -0.00266         *
 * O         8     -0.00186             -0.00257             -0.00265         *
 * O         9      0.01335              0.01574              0.00015         *
 * O        10      0.01344              0.01586              0.00018         *
 * O        11     -0.01335              0.01574             -0.00015         *
 * O        12     -0.01344              0.01586             -0.00018         *
 * O        13     -0.01335             -0.01574             -0.00015         *
 * O        14     -0.01344             -0.01586             -0.00018         *
 * O        15      0.01335             -0.01574              0.00015         *
 * O        16      0.01344             -0.01586              0.00018         *
 * O        17      0.00052             -0.01399              0.00613         *
 * O        18      0.00039             -0.01395              0.00609         *
 * O        19     -0.00052             -0.01399             -0.00613         *
 * O        20     -0.00039             -0.01395             -0.00609         *
 * O        21     -0.00052              0.01399             -0.00613         *
 * O        22     -0.00039              0.01395             -0.00609         *
 * O        23      0.00052              0.01399              0.00613         *
 * O        24      0.00039              0.01395              0.00609         *
 * Na        1      0.00000             -0.01162              0.00000         *
 * Na        2      0.00000             -0.01172              0.00000         *
 * Na        3      0.00000              0.01162              0.00000         *
 * Na        4      0.00000              0.01172              0.00000         *
 * Al        1      0.00000              0.00554              0.00000         *
 * Al        2      0.00000              0.00554              0.00000         *
 * Al        3      0.00000             -0.00554              0.00000         *
 * Al        4      0.00000             -0.00554              0.00000         *
 * Si        1      0.00162             -0.03273              0.00308         *
 * Si        2      0.00141             -0.03292              0.00303         *
 * Si        3     -0.00162             -0.03273             -0.00308         *
 * Si        4     -0.00141             -0.03292             -0.00303         *
 * Si        5     -0.00162              0.03273             -0.00308         *
 * Si        6     -0.00141              0.03292             -0.00303         *
 * Si        7      0.00162              0.03273              0.00308         *
 * Si        8      0.00141              0.03292              0.00303         *
 *                                                                            *
 ******************************************************************************
  
 +------------+-------------+-------------+-----------------+ <-- min BFGS
 |    Step    |   lambda    |   F.delta   |    enthalpy     | <-- min BFGS
 +------------+-------------+-------------+-----------------+ <-- min BFGS
 |  previous  |    0.000000 |    0.000002 |   -16835.338140 | <-- min BFGS
 | trial step |    1.000000 |    0.000002 |   -16835.338194 | <-- min BFGS
 |  line step |   12.233454 |    0.000000 |   -16835.338485 | <-- min BFGS
 +------------+-------------+-------------+-----------------+ <-- min BFGS
  
 BFGS: finished iteration     2 with enthalpy= -1.68353385E+004 eV
  
 +-----------+-----------------+-----------------+------------+-----+ <-- BFGS
 | Parameter |      value      |    tolerance    |    units   | OK? | <-- BFGS
 +-----------+-----------------+-----------------+------------+-----+ <-- BFGS
 |  dE/ion   |   8.633352E-006 |   2.000000E-007 |         eV | No  | <-- BFGS
 |  |F|max   |   3.309181E-002 |   1.000000E-003 |       eV/A | No  | <-- BFGS
 |  |dR|max  |   1.226667E-003 |   1.000000E-003 |          A | No  | <-- BFGS
 +-----------+-----------------+-----------------+------------+-----+ <-- BFGS
  

================================================================================
 Starting BFGS iteration          3 ...
================================================================================
 
Writing model to jadeite_4_30_GPa_cij__4__4.check
  
 +------------+-------------+-------------+-----------------+ <-- min BFGS
 |    Step    |   lambda    |   F.delta   |    enthalpy     | <-- min BFGS
 +------------+-------------+-------------+-----------------+ <-- min BFGS
 |  previous  |    0.000000 |    0.000003 |   -16835.338485 | <-- min BFGS
 +------------+-------------+-------------+-----------------+ <-- min BFGS
  

--------------------------------------------------------------------------------
 BFGS: starting iteration         3 with trial guess (lambda=  1.000000)
--------------------------------------------------------------------------------
 
                           -------------------------------
                                     Cell Contents
                           -------------------------------
 
            xxxxxxxxxxxxxxxxxxxxxxxxxxxxxxxxxxxxxxxxxxxxxxxxxxxxxxxxxxxx
            x  Element    Atom        Fractional coordinates of atoms  x
            x            Number           u          v          w      x
            x----------------------------------------------------------x
            x  O            1         0.109373   0.077042   0.129074   x
            x  O            2         0.609374   0.577041   0.129076   x
            x  O            3         0.890627   0.077042   0.370926   x
            x  O            4         0.390626   0.577041   0.370924   x
            x  O            5         0.890627   0.922958   0.870926   x
            x  O            6         0.390626   0.422959   0.870924   x
            x  O            7         0.109373   0.922958   0.629074   x
            x  O            8         0.609374   0.422959   0.629076   x
            x  O            9         0.361191   0.263766   0.295256   x
            x  O           10         0.861190   0.763766   0.295256   x
            x  O           11         0.638809   0.263766   0.204744   x
            x  O           12         0.138810   0.763766   0.204744   x
            x  O           13         0.638809   0.736234   0.704744   x
            x  O           14         0.138810   0.236234   0.704744   x
            x  O           15         0.361191   0.736234   0.795256   x
            x  O           16         0.861190   0.236234   0.795256   x
            x  O           17         0.354056   0.008505   1.005618   x
            x  O           18         0.854058   0.508502   1.005627   x
            x  O           19         0.645944   0.008505   0.494382   x
            x  O           20         0.145942   0.508502   0.494373   x
            x  O           21         0.645944   0.991495  -0.005618   x
            x  O           22         0.145942   0.491498  -0.005627   x
            x  O           23         0.354056   0.991495   0.505618   x
            x  O           24         0.854058   0.491498   0.505627   x
            x  Na           1         0.000000   0.301064   0.250000   x
            x  Na           2         0.500000   0.801067   0.250000   x
            x  Na           3         0.000000   0.698936   0.750000   x
            x  Na           4         0.500000   0.198933   0.750000   x
            x  Al           1         0.000000   0.906062   0.250000   x
            x  Al           2         0.500000   0.406062   0.250000   x
            x  Al           3         0.000000   0.093938   0.750000   x
            x  Al           4         0.500000   0.593938   0.750000   x
            x  Si           1         0.290947   0.093882   0.227908   x
            x  Si           2         0.790948   0.593882   0.227913   x
            x  Si           3         0.709053   0.093882   0.272092   x
            x  Si           4         0.209052   0.593882   0.272087   x
            x  Si           5         0.709053   0.906118   0.772092   x
            x  Si           6         0.209052   0.406118   0.772087   x
            x  Si           7         0.290947   0.906118   0.727908   x
            x  Si           8         0.790948   0.406118   0.727913   x
            xxxxxxxxxxxxxxxxxxxxxxxxxxxxxxxxxxxxxxxxxxxxxxxxxxxxxxxxxxxx
 
 
------------------------------------------------------------------------ <-- SCF
SCF loop      Energy                           Energy gain       Timer   <-- SCF
                                               per atom          (sec)   <-- SCF
------------------------------------------------------------------------ <-- SCF
Initial  -1.68461090E+004                                        337.31  <-- SCF
      1  -1.68461095E+004                    1.27490621E-005     351.10  <-- SCF
      2  -1.68461095E+004                    5.92706011E-009     364.83  <-- SCF
      3  -1.68461095E+004                    3.89017215E-011     379.71  <-- SCF
------------------------------------------------------------------------ <-- SCF
 
Final energy =  -16846.10950887     eV
(energy not corrected for finite basis set)
 
 
 *********************************** Forces ***********************************
 *                                                                            *
 *                        Cartesian components (eV/A)                         *
 * -------------------------------------------------------------------------- *
 *                   x                    y                    z              *
 *                                                                            *
 * O         1     -0.00216              0.00123             -0.00130         *
 * O         2     -0.00208              0.00131             -0.00130         *
 * O         3      0.00216              0.00123              0.00130         *
 * O         4      0.00208              0.00131              0.00130         *
 * O         5      0.00216             -0.00123              0.00130         *
 * O         6      0.00208             -0.00131              0.00130         *
 * O         7     -0.00216             -0.00123             -0.00130         *
 * O         8     -0.00208             -0.00131             -0.00130         *
 * O         9      0.00965              0.01013              0.00117         *
 * O        10      0.00971              0.01018              0.00120         *
 * O        11     -0.00965              0.01013             -0.00117         *
 * O        12     -0.00971              0.01018             -0.00120         *
 * O        13     -0.00965             -0.01013             -0.00117         *
 * O        14     -0.00971             -0.01018             -0.00120         *
 * O        15      0.00965             -0.01013              0.00117         *
 * O        16      0.00971             -0.01018              0.00120         *
 * O        17      0.00149             -0.01441              0.00512         *
 * O        18      0.00137             -0.01438              0.00508         *
 * O        19     -0.00149             -0.01441             -0.00512         *
 * O        20     -0.00137             -0.01438             -0.00508         *
 * O        21     -0.00149              0.01441             -0.00512         *
 * O        22     -0.00137              0.01438             -0.00508         *
 * O        23      0.00149              0.01441              0.00512         *
 * O        24      0.00137              0.01438              0.00508         *
 * Na        1      0.00000             -0.01164              0.00000         *
 * Na        2      0.00000             -0.01172              0.00000         *
 * Na        3      0.00000              0.01164              0.00000         *
 * Na        4      0.00000              0.01172              0.00000         *
 * Al        1      0.00000              0.00771              0.00000         *
 * Al        2      0.00000              0.00769              0.00000         *
 * Al        3      0.00000             -0.00771              0.00000         *
 * Al        4      0.00000             -0.00769              0.00000         *
 * Si        1      0.00157             -0.02636              0.00376         *
 * Si        2      0.00144             -0.02649              0.00371         *
 * Si        3     -0.00157             -0.02636             -0.00376         *
 * Si        4     -0.00144             -0.02649             -0.00371         *
 * Si        5     -0.00157              0.02636             -0.00376         *
 * Si        6     -0.00144              0.02649             -0.00371         *
 * Si        7      0.00157              0.02636              0.00376         *
 * Si        8      0.00144              0.02649              0.00371         *
 *                                                                            *
 ******************************************************************************
  
 +------------+-------------+-------------+-----------------+ <-- min BFGS
 |    Step    |   lambda    |   F.delta   |    enthalpy     | <-- min BFGS
 +------------+-------------+-------------+-----------------+ <-- min BFGS
 |  previous  |    0.000000 |    0.000003 |   -16835.338485 | <-- min BFGS
 | trial step |    1.000000 |    0.000002 |   -16835.338550 | <-- min BFGS
 +------------+-------------+-------------+-----------------+ <-- min BFGS
  

--------------------------------------------------------------------------------
 BFGS: improving iteration         3 with line minimization (lambda=  5.065894)
--------------------------------------------------------------------------------
 
                           -------------------------------
                                     Cell Contents
                           -------------------------------
 
            xxxxxxxxxxxxxxxxxxxxxxxxxxxxxxxxxxxxxxxxxxxxxxxxxxxxxxxxxxxx
            x  Element    Atom        Fractional coordinates of atoms  x
            x            Number           u          v          w      x
            x----------------------------------------------------------x
            x  O            1         0.109399   0.077075   0.129025   x
            x  O            2         0.609400   0.577074   0.129026   x
            x  O            3         0.890601   0.077075   0.370975   x
            x  O            4         0.390600   0.577074   0.370974   x
            x  O            5         0.890601   0.922925   0.870975   x
            x  O            6         0.390600   0.422926   0.870974   x
            x  O            7         0.109399   0.922925   0.629025   x
            x  O            8         0.609400   0.422926   0.629026   x
            x  O            9         0.361256   0.263791   0.295234   x
            x  O           10         0.861256   0.763791   0.295234   x
            x  O           11         0.638744   0.263791   0.204766   x
            x  O           12         0.138744   0.763791   0.204766   x
            x  O           13         0.638744   0.736209   0.704766   x
            x  O           14         0.138744   0.236209   0.704766   x
            x  O           15         0.361256   0.736209   0.795234   x
            x  O           16         0.861256   0.236209   0.795234   x
            x  O           17         0.354070   0.008448   1.005726   x
            x  O           18         0.854072   0.508445   1.005734   x
            x  O           19         0.645930   0.008448   0.494274   x
            x  O           20         0.145928   0.508445   0.494266   x
            x  O           21         0.645930   0.991552  -0.005726   x
            x  O           22         0.145928   0.491555  -0.005734   x
            x  O           23         0.354070   0.991552   0.505726   x
            x  O           24         0.854072   0.491555   0.505734   x
            x  Na           1         0.000000   0.300986   0.250000   x
            x  Na           2         0.500000   0.800989   0.250000   x
            x  Na           3         0.000000   0.699014   0.750000   x
            x  Na           4         0.500000   0.199011   0.750000   x
            x  Al           1         0.000000   0.906010   0.250000   x
            x  Al           2         0.500000   0.406011   0.250000   x
            x  Al           3         0.000000   0.093990   0.750000   x
            x  Al           4         0.500000   0.593989   0.750000   x
            x  Si           1         0.290975   0.093843   0.227949   x
            x  Si           2         0.790976   0.593843   0.227953   x
            x  Si           3         0.709025   0.093843   0.272051   x
            x  Si           4         0.209024   0.593843   0.272047   x
            x  Si           5         0.709025   0.906157   0.772051   x
            x  Si           6         0.209024   0.406157   0.772047   x
            x  Si           7         0.290975   0.906157   0.727949   x
            x  Si           8         0.790976   0.406157   0.727953   x
            xxxxxxxxxxxxxxxxxxxxxxxxxxxxxxxxxxxxxxxxxxxxxxxxxxxxxxxxxxxx
 
 
------------------------------------------------------------------------ <-- SCF
SCF loop      Energy                           Energy gain       Timer   <-- SCF
                                               per atom          (sec)   <-- SCF
------------------------------------------------------------------------ <-- SCF
Initial  -1.68461015E+004                                        385.94  <-- SCF
      1  -1.68461096E+004                    2.03419797E-004     399.42  <-- SCF
      2  -1.68461096E+004                    8.19189049E-008     413.31  <-- SCF
      3  -1.68461096E+004                    5.82907108E-010     427.20  <-- SCF
      4  -1.68461096E+004                    1.23743051E-011     442.58  <-- SCF
------------------------------------------------------------------------ <-- SCF
 
Final energy =  -16846.10962731     eV
(energy not corrected for finite basis set)
 
 
 *********************************** Forces ***********************************
 *                                                                            *
 *                        Cartesian components (eV/A)                         *
 * -------------------------------------------------------------------------- *
 *                   x                    y                    z              *
 *                                                                            *
 * O         1     -0.00290             -0.00388              0.00421         *
 * O         2     -0.00293             -0.00384              0.00423         *
 * O         3      0.00290             -0.00388             -0.00421         *
 * O         4      0.00293             -0.00384             -0.00423         *
 * O         5      0.00290              0.00388             -0.00421         *
 * O         6      0.00293              0.00384             -0.00423         *
 * O         7     -0.00290              0.00388              0.00421         *
 * O         8     -0.00293              0.00384              0.00423         *
 * O         9     -0.00540             -0.01267              0.00534         *
 * O        10     -0.00549             -0.01284              0.00537         *
 * O        11      0.00540             -0.01267             -0.00534         *
 * O        12      0.00549             -0.01284             -0.00537         *
 * O        13      0.00540              0.01267             -0.00534         *
 * O        14      0.00549              0.01284             -0.00537         *
 * O        15     -0.00540              0.01267              0.00534         *
 * O        16     -0.00549              0.01284              0.00537         *
 * O        17      0.00547             -0.01616              0.00105         *
 * O        18      0.00534             -0.01615              0.00099         *
 * O        19     -0.00547             -0.01616             -0.00105         *
 * O        20     -0.00534             -0.01615             -0.00099         *
 * O        21     -0.00547              0.01616             -0.00105         *
 * O        22     -0.00534              0.01615             -0.00099         *
 * O        23      0.00547              0.01616              0.00105         *
 * O        24      0.00534              0.01615              0.00099         *
 * Na        1      0.00000             -0.01160              0.00000         *
 * Na        2      0.00000             -0.01164              0.00000         *
 * Na        3      0.00000              0.01160              0.00000         *
 * Na        4      0.00000              0.01164              0.00000         *
 * Al        1      0.00000              0.01657              0.00000         *
 * Al        2      0.00000              0.01647              0.00000         *
 * Al        3      0.00000             -0.01657              0.00000         *
 * Al        4      0.00000             -0.01647              0.00000         *
 * Si        1      0.00139             -0.00051              0.00651         *
 * Si        2      0.00154             -0.00040              0.00649         *
 * Si        3     -0.00139             -0.00051             -0.00651         *
 * Si        4     -0.00154             -0.00040             -0.00649         *
 * Si        5     -0.00139              0.00051             -0.00651         *
 * Si        6     -0.00154              0.00040             -0.00649         *
 * Si        7      0.00139              0.00051              0.00651         *
 * Si        8      0.00154              0.00040              0.00649         *
 *                                                                            *
 ******************************************************************************
  
 +------------+-------------+-------------+-----------------+ <-- min BFGS
 |    Step    |   lambda    |   F.delta   |    enthalpy     | <-- min BFGS
 +------------+-------------+-------------+-----------------+ <-- min BFGS
 |  previous  |    0.000000 |    0.000003 |   -16835.338485 | <-- min BFGS
 | trial step |    1.000000 |    0.000002 |   -16835.338550 | <-- min BFGS
 |  line step |    5.065894 |    0.000000 |   -16835.338669 | <-- min BFGS
 +------------+-------------+-------------+-----------------+ <-- min BFGS
  
 BFGS: finished iteration     3 with enthalpy= -1.68353387E+004 eV
  
 +-----------+-----------------+-----------------+------------+-----+ <-- BFGS
 | Parameter |      value      |    tolerance    |    units   | OK? | <-- BFGS
 +-----------+-----------------+-----------------+------------+-----+ <-- BFGS
 |  dE/ion   |   4.596810E-006 |   2.000000E-007 |         eV | No  | <-- BFGS
 |  |F|max   |   1.709335E-002 |   1.000000E-003 |       eV/A | No  | <-- BFGS
 |  |dR|max  |   9.028850E-004 |   1.000000E-003 |          A | Yes | <-- BFGS
 +-----------+-----------------+-----------------+------------+-----+ <-- BFGS
  

================================================================================
 Starting BFGS iteration          4 ...
================================================================================
 
Writing model to jadeite_4_30_GPa_cij__4__4.check
  
 +------------+-------------+-------------+-----------------+ <-- min BFGS
 |    Step    |   lambda    |   F.delta   |    enthalpy     | <-- min BFGS
 +------------+-------------+-------------+-----------------+ <-- min BFGS
 |  previous  |    0.000000 |    0.000002 |   -16835.338669 | <-- min BFGS
[...]
            x  O           20         0.145825   0.507680   0.492921   x
            x  O           21         0.645825   0.992320  -0.007080   x
            x  O           22         0.145825   0.492320  -0.007079   x
            x  O           23         0.354175   0.992320   0.507080   x
            x  O           24         0.854175   0.492320   0.507079   x
            x  Na           1         0.000000   0.300383   0.250000   x
            x  Na           2         0.500000   0.800383   0.250000   x
            x  Na           3         0.000000   0.699617   0.750000   x
            x  Na           4         0.500000   0.199617   0.750000   x
            x  Al           1         0.000000   0.906166   0.250000   x
            x  Al           2         0.500000   0.406166   0.250000   x
            x  Al           3         0.000000   0.093834   0.750000   x
            x  Al           4         0.500000   0.593834   0.750000   x
            x  Si           1         0.291021   0.093805   0.228528   x
            x  Si           2         0.791022   0.593804   0.228529   x
            x  Si           3         0.708979   0.093805   0.271472   x
            x  Si           4         0.208978   0.593804   0.271471   x
            x  Si           5         0.708979   0.906195   0.771472   x
            x  Si           6         0.208978   0.406196   0.771471   x
            x  Si           7         0.291021   0.906195   0.728528   x
            x  Si           8         0.791022   0.406196   0.728529   x
            xxxxxxxxxxxxxxxxxxxxxxxxxxxxxxxxxxxxxxxxxxxxxxxxxxxxxxxxxxxx
 
 
 BFGS: Final Enthalpy     = -1.68353394E+004 eV
 BFGS: Final <frequency>  =     984.13945 cm-1
 
 ***************************** Symmetrised Forces *****************************
 *                                                                            *
 *                        Cartesian components (eV/A)                         *
 * -------------------------------------------------------------------------- *
 *                   x                    y                    z              *
 *                                                                            *
 * O         1     -0.00013              0.00022             -0.00023         *
 * O         2     -0.00015              0.00018             -0.00024         *
 * O         3      0.00013              0.00022              0.00023         *
 * O         4      0.00015              0.00018              0.00024         *
 * O         5      0.00013             -0.00022              0.00023         *
 * O         6      0.00015             -0.00018              0.00024         *
 * O         7     -0.00013             -0.00022             -0.00023         *
 * O         8     -0.00015             -0.00018             -0.00024         *
 * O         9      0.00028              0.00034             -0.00057         *
 * O        10      0.00002             -0.00022             -0.00059         *
 * O        11     -0.00028              0.00034              0.00057         *
 * O        12     -0.00002             -0.00022              0.00059         *
 * O        13     -0.00028             -0.00034              0.00057         *
 * O        14     -0.00002              0.00022              0.00059         *
 * O        15      0.00028             -0.00034             -0.00057         *
 * O        16      0.00002              0.00022             -0.00059         *
 * O        17      0.00009              0.00034             -0.00016         *
 * O        18      0.00009              0.00055              0.00014         *
 * O        19     -0.00009              0.00034              0.00016         *
 * O        20     -0.00009              0.00055             -0.00014         *
 * O        21     -0.00009             -0.00034              0.00016         *
 * O        22     -0.00009             -0.00055             -0.00014         *
 * O        23      0.00009             -0.00034             -0.00016         *
 * O        24      0.00009             -0.00055              0.00014         *
 * Na        1      0.00000             -0.00027              0.00000         *
 * Na        2      0.00000             -0.00021              0.00000         *
 * Na        3      0.00000              0.00027              0.00000         *
 * Na        4      0.00000              0.00021              0.00000         *
 * Al        1      0.00000              0.00043              0.00000         *
 * Al        2      0.00000              0.00030              0.00000         *
 * Al        3      0.00000             -0.00043              0.00000         *
 * Al        4      0.00000             -0.00030              0.00000         *
 * Si        1     -0.00041             -0.00055              0.00035         *
 * Si        2     -0.00022              0.00012              0.00010         *
 * Si        3      0.00041             -0.00055             -0.00035         *
 * Si        4      0.00022              0.00012             -0.00010         *
 * Si        5      0.00041              0.00055             -0.00035         *
 * Si        6      0.00022             -0.00012             -0.00010         *
 * Si        7     -0.00041              0.00055              0.00035         *
 * Si        8     -0.00022             -0.00012              0.00010         *
 *                                                                            *
 ******************************************************************************
 
 *********** Symmetrised Stress Tensor ***********
 *                                               *
 *          Cartesian components (GPa)           *
 * --------------------------------------------- *
 *             x             y             z     *
 *                                               *
 *  x     -4.111059      0.000000     -0.509933  *
 *  y      0.000000     -4.165208      0.000000  *
 *  z     -0.509933      0.000000     -4.289694  *
 *                                               *
 *  Pressure:    4.1887                          *
 *                                               *
 *************************************************
 
 Pseudo atomic calculation performed for O 2s2 2p4
 
 Converged in 36 iterations to a total energy of -429.6485 eV
 
 
 Pseudo atomic calculation performed for Na 2s2 2p6 3s1
 
 Converged in 33 iterations to a total energy of -1302.8467 eV
 
 
 Pseudo atomic calculation performed for Al 3s2 3p1
 
 Converged in 20 iterations to a total energy of -52.7392 eV
 
 
 Pseudo atomic calculation performed for Si 3s2 3p2
 
 Converged in 21 iterations to a total energy of -101.9044 eV
 
Charge spilling parameter for spin component 1 = 0.85%
 
     Atomic Populations (Mulliken)
     -----------------------------
Species   Ion     s      p      d      f     Total  Charge (e)
==============================================================
  O        1     1.85   5.24   0.00   0.00   7.08    -1.08
  O        2     1.85   5.24   0.00   0.00   7.08    -1.08
  O        3     1.85   5.24   0.00   0.00   7.08    -1.08
  O        4     1.85   5.24   0.00   0.00   7.08    -1.08
  O        5     1.85   5.24   0.00   0.00   7.08    -1.08
  O        6     1.85   5.24   0.00   0.00   7.08    -1.08
  O        7     1.85   5.24   0.00   0.00   7.08    -1.08
  O        8     1.85   5.24   0.00   0.00   7.08    -1.08
  O        9     1.84   5.29   0.00   0.00   7.12    -1.12
  O       10     1.84   5.29   0.00   0.00   7.12    -1.12
  O       11     1.84   5.29   0.00   0.00   7.12    -1.12
  O       12     1.84   5.29   0.00   0.00   7.12    -1.12
  O       13     1.84   5.29   0.00   0.00   7.12    -1.12
  O       14     1.84   5.29   0.00   0.00   7.12    -1.12
  O       15     1.84   5.29   0.00   0.00   7.12    -1.12
  O       16     1.84   5.29   0.00   0.00   7.12    -1.12
  O       17     1.83   5.30   0.00   0.00   7.12    -1.12
  O       18     1.83   5.30   0.00   0.00   7.12    -1.12
  O       19     1.83   5.30   0.00   0.00   7.12    -1.12
  O       20     1.83   5.30   0.00   0.00   7.12    -1.12
  O       21     1.83   5.30   0.00   0.00   7.12    -1.12
  O       22     1.83   5.30   0.00   0.00   7.12    -1.12
  O       23     1.83   5.30   0.00   0.00   7.12    -1.12
  O       24     1.83   5.30   0.00   0.00   7.12    -1.12
  Na       1     2.04   5.77   0.00   0.00   7.81     1.19
  Na       2     2.04   5.77   0.00   0.00   7.81     1.19
  Na       3     2.04   5.77   0.00   0.00   7.81     1.19
  Na       4     2.04   5.77   0.00   0.00   7.81     1.19
  Al       1     0.51   0.92   0.00   0.00   1.43     1.57
  Al       2     0.51   0.92   0.00   0.00   1.43     1.57
  Al       3     0.51   0.92   0.00   0.00   1.43     1.57
  Al       4     0.51   0.92   0.00   0.00   1.43     1.57
  Si       1     0.69   1.36   0.00   0.00   2.05     1.95
  Si       2     0.69   1.36   0.00   0.00   2.05     1.95
  Si       3     0.69   1.36   0.00   0.00   2.05     1.95
  Si       4     0.69   1.36   0.00   0.00   2.05     1.95
  Si       5     0.69   1.36   0.00   0.00   2.05     1.95
  Si       6     0.69   1.36   0.00   0.00   2.05     1.95
  Si       7     0.69   1.36   0.00   0.00   2.05     1.95
  Si       8     0.69   1.36   0.00   0.00   2.05     1.95
==============================================================
 
     Bond                     Population      Length (A)
============================================================
   O 009 --   Si 001               0.76        1.59258
   O 011 --   Si 003               0.76        1.59258
   O 015 --   Si 007               0.76        1.59258
   O 013 --   Si 005               0.76        1.59258
   O 014 --   Si 006               0.76        1.59260
   O 012 --   Si 004               0.76        1.59260
   O 016 --   Si 008               0.76        1.59260
   O 010 --   Si 002               0.76        1.59260
   O 019 --   Si 003               0.56        1.63024
   O 021 --   Si 005               0.56        1.63024
   O 017 --   Si 001               0.56        1.63024
   O 023 --   Si 007               0.56        1.63024
   O 022 --   Si 006               0.56        1.63025
   O 024 --   Si 008               0.56        1.63025
   O 020 --   Si 004               0.56        1.63025
   O 018 --   Si 002               0.56        1.63025
   O 008 --   Si 008               0.59        1.63741
   O 002 --   Si 002               0.59        1.63741
   O 006 --   Si 006               0.59        1.63741
   O 004 --   Si 004               0.59        1.63741
   O 007 --   Si 007               0.59        1.63741
   O 005 --   Si 005               0.59        1.63741
   O 003 --   Si 003               0.59        1.63741
   O 001 --   Si 001               0.59        1.63741
   O 020 --   Si 006               0.58        1.64079
   O 024 --   Si 002               0.58        1.64079
   O 022 --   Si 004               0.58        1.64079
   O 018 --   Si 008               0.58        1.64079
   O 021 --   Si 003               0.58        1.64081
   O 023 --   Si 001               0.58        1.64081
   O 019 --   Si 005               0.58        1.64081
   O 017 --   Si 007               0.58        1.64081
   O 014 --   Al 003               0.42        1.85581
   O 012 --   Al 001               0.42        1.85581
   O 016 --   Al 003               0.42        1.85581
   O 010 --   Al 001               0.42        1.85581
   O 013 --   Al 004               0.42        1.85582
   O 011 --   Al 002               0.42        1.85582
   O 015 --   Al 004               0.42        1.85582
   O 009 --   Al 002               0.42        1.85582
   O 007 --   Al 001               0.33        1.93712
   O 001 --   Al 003               0.33        1.93712
   O 005 --   Al 001               0.33        1.93712
   O 003 --   Al 003               0.33        1.93712
   O 002 --   Al 004               0.33        1.93712
   O 008 --   Al 002               0.33        1.93712
   O 006 --   Al 002               0.33        1.93712
   O 004 --   Al 004               0.33        1.93712
   O 008 --   Al 004               0.31        1.99999
   O 006 --   Al 004               0.31        1.99999
   O 002 --   Al 002               0.31        1.99999
   O 004 --   Al 002               0.31        1.99999
   O 001 --   Al 001               0.31        2.00000
   O 003 --   Al 001               0.31        2.00000
   O 007 --   Al 003               0.31        2.00000
   O 005 --   Al 003               0.31        2.00000
   O 007 --   Na 003              -0.01        2.34953
   O 005 --   Na 003              -0.01        2.34953
   O 003 --   Na 001              -0.01        2.34953
   O 001 --   Na 001              -0.01        2.34953
   O 002 --   Na 002              -0.01        2.34953
   O 004 --   Na 002              -0.01        2.34953
   O 008 --   Na 004              -0.01        2.34953
   O 006 --   Na 004              -0.01        2.34953
   O 020 --   Na 001              -0.04        2.36212
   O 018 --   Na 001              -0.04        2.36212
   O 022 --   Na 003              -0.04        2.36212
   O 024 --   Na 003              -0.04        2.36212
   O 023 --   Na 004              -0.04        2.36212
   O 021 --   Na 004              -0.04        2.36212
   O 017 --   Na 002              -0.04        2.36212
   O 019 --   Na 002              -0.04        2.36212
   O 011 --   Na 004              -0.05        2.39831
   O 009 --   Na 004              -0.05        2.39831
   O 013 --   Na 002              -0.05        2.39831
   O 015 --   Na 002              -0.05        2.39831
   O 012 --   Na 003              -0.05        2.39831
   O 010 --   Na 003              -0.05        2.39831
   O 016 --   Na 001              -0.05        2.39831
   O 014 --   Na 001              -0.05        2.39831
   O 002 --    O 006              -0.10        2.47227
   O 004 --    O 008              -0.10        2.47227
   O 003 --    O 007              -0.10        2.47227
   O 001 --    O 005              -0.10        2.47227
   O 009 --    O 023              -0.10        2.58429
   O 011 --    O 021              -0.10        2.58429
   O 015 --    O 017              -0.10        2.58429
   O 013 --    O 019              -0.10        2.58429
   O 016 --    O 018              -0.10        2.58429
   O 014 --    O 020              -0.10        2.58429
   O 010 --    O 024              -0.10        2.58429
   O 012 --    O 022              -0.10        2.58429
   O 018 --    O 024              -0.17        2.61327
   O 020 --    O 022              -0.17        2.61327
   O 019 --    O 021              -0.17        2.61327
   O 017 --    O 023              -0.17        2.61327
   O 006 --    O 020              -0.08        2.63684
   O 008 --    O 018              -0.08        2.63684
   O 004 --    O 022              -0.08        2.63684
   O 002 --    O 024              -0.08        2.63684
   O 003 --    O 021              -0.08        2.63684
   O 005 --    O 019              -0.08        2.63684
   O 001 --    O 023              -0.08        2.63684
   O 007 --    O 017              -0.08        2.63684
   O 003 --    O 019              -0.08        2.64531
   O 005 --    O 021              -0.08        2.64531
   O 001 --    O 017              -0.08        2.64531
   O 007 --    O 023              -0.08        2.64531
   O 006 --    O 022              -0.08        2.64531
   O 004 --    O 020              -0.08        2.64531
   O 002 --    O 018              -0.08        2.64531
   O 008 --    O 024              -0.08        2.64531
   O 011 --    O 019              -0.09        2.64756
   O 009 --    O 017              -0.09        2.64756
   O 013 --    O 021              -0.09        2.64756
   O 015 --    O 023              -0.09        2.64756
   O 014 --    O 022              -0.09        2.64757
   O 016 --    O 024              -0.09        2.64757
   O 012 --    O 020              -0.09        2.64757
   O 010 --    O 018              -0.09        2.64757
   O 001 --    O 014              -0.08        2.68599
   O 007 --    O 012              -0.08        2.68599
   O 005 --    O 010              -0.08        2.68599
   O 003 --    O 016              -0.08        2.68599
   O 002 --    O 013              -0.08        2.68599
   O 004 --    O 015              -0.08        2.68599
   O 008 --    O 011              -0.08        2.68599
   O 006 --    O 009              -0.08        2.68599
   O 003 --    O 010              -0.05        2.71116
   O 001 --    O 012              -0.05        2.71116
   O 007 --    O 014              -0.05        2.71116
   O 005 --    O 016              -0.05        2.71116
   O 008 --    O 013              -0.05        2.71117
   O 006 --    O 015              -0.05        2.71117
   O 004 --    O 009              -0.05        2.71117
   O 002 --    O 011              -0.05        2.71117
   O 001 --    O 003              -0.05        2.72937
   O 005 --    O 007              -0.05        2.72937
   O 006 --    O 008              -0.05        2.72937
   O 002 --    O 004              -0.05        2.72937
   O 024 --   Na 001              -0.02        2.74360
   O 022 --   Na 001              -0.02        2.74360
   O 020 --   Na 003              -0.02        2.74360
   O 018 --   Na 003              -0.02        2.74360
   O 017 --   Na 004              -0.02        2.74360
   O 019 --   Na 004              -0.02        2.74360
   O 023 --   Na 002              -0.02        2.74360
   O 021 --   Na 002              -0.02        2.74360
   O 003 --    O 011              -0.06        2.77309
   O 001 --    O 009              -0.06        2.77309
   O 007 --    O 015              -0.06        2.77309
   O 005 --    O 013              -0.06        2.77309
   O 002 --    O 010              -0.06        2.77310
   O 008 --    O 016              -0.06        2.77310
   O 004 --    O 012              -0.06        2.77310
   O 006 --    O 014              -0.06        2.77310
   O 020 --    O 024              -0.04        2.77887
   O 018 --    O 022              -0.04        2.77887
   O 019 --    O 023              -0.04        2.77888
   O 017 --    O 021              -0.04        2.77888
   O 014 --    O 016              -0.05        2.79986
   O 010 --    O 012              -0.05        2.79986
   O 013 --    O 015              -0.05        2.79987
   O 009 --    O 011              -0.05        2.79987
   O 005 --    O 012              -0.04        2.80754
   O 007 --    O 010              -0.04        2.80754
   O 003 --    O 014              -0.04        2.80754
   O 001 --    O 016              -0.04        2.80754
   O 002 --    O 015              -0.04        2.80755
   O 004 --    O 013              -0.04        2.80755
   O 008 --    O 009              -0.04        2.80755
   O 006 --    O 011              -0.04        2.80755
   O 016 --    O 019              -0.03        2.91092
   O 014 --    O 017              -0.03        2.91092
   O 010 --    O 021              -0.03        2.91092
   O 012 --    O 023              -0.03        2.91092
   O 015 --    O 020              -0.03        2.91093
   O 013 --    O 018              -0.03        2.91093
   O 011 --    O 024              -0.03        2.91093
   O 009 --    O 022              -0.03        2.91093
   O 004 --    O 006              -0.06        2.92370
   O 002 --    O 008              -0.06        2.92370
   O 003 --    O 005              -0.06        2.92370
   O 001 --    O 007              -0.06        2.92370
============================================================
 
 
Writing model to jadeite_4_30_GPa_cij__4__4.check
 
Writing analysis data to jadeite_4_30_GPa_cij__4__4.castep_bin
Initialisation time =      2.10 s
Calculation time    =   1590.12 s
Finalisation time   =      0.80 s
Total time          =   1593.02 s
Peak Memory Use     = 221880 kB
