 +-------------------------------------------------+
 |                                                 |
 |      CCC   AA    SSS  TTTTT  EEEEE  PPPP        |
 |     C     A  A  S       T    E      P   P       |
 |     C     AAAA   SS     T    EEE    PPPP        |
 |     C     A  A     S    T    E      P           |
 |      CCC  A  A  SSS     T    EEEEE  P           |
 |                                                 |
 +-------------------------------------------------+
 |                                                 |
 | Welcome to Academic Release CASTEP version 5.02 |
 | Ab Initio Total Energy Program                  |
 |                                                 |
 | Authors:                                        |
 | M. Segall, M. Probert, C. Pickard, P. Hasnip,   |
 | S. Clark, K. Refson, M. Payne                   |
 |                                                 |
 | Contributors:                                   |
 | P. Lindan, P. Haynes, J. White, V. Milman,      |
 | N. Govind, M. Gibson, P. Tulip, V. Cocula,      |
 | B. Montanari, D. Quigley, M. Glover,            |
 | L. Bernasconi, A. Perlov, M. Plummer            |
 |                                                 |
 | Copyright (c) 2000 - 2009                       |
 |                                                 |
 |     Distributed under the terms of an           |
 |     Agreement between the United Kingdom        |
 |     Car-Parrinello (UKCP) Consortium,           |
 |     Daresbury Laboratory and Accelrys, Inc.     |
 |                                                 |
 | Please cite                                     |
 |                                                 |
 |     "First principles methods using CASTEP"     |
 |                                                 |
 |         Zeitschrift fuer Kristallographie       |
 |           220(5-6) pp. 567-570 (2005)           |
 |                                                 |
 | S. J. Clark, M. D. Segall, C. J. Pickard,       |
 | P. J. Hasnip, M. J. Probert, K. Refson,         |
 | M. C. Payne                                     |
 |                                                 |
 |       in all publications arising from          |
 |              your use of CASTEP                 |
 |                                                 |
 +-------------------------------------------------+
 
 
 Pseudo atomic calculation performed for O 2s2 2p4
 
 Converged in 36 iterations to a total energy of -429.6485 eV
 
 
 Pseudo atomic calculation performed for Na 2s2 2p6 3s1
 
 Converged in 33 iterations to a total energy of -1302.8467 eV
 
 
 Pseudo atomic calculation performed for Al 3s2 3p1
 
 Converged in 20 iterations to a total energy of -52.7392 eV
 
 
 Pseudo atomic calculation performed for Si 3s2 3p2
 
 Converged in 21 iterations to a total energy of -101.9044 eV
 
Calculation parallelised over   36 nodes.
K-points are distributed over    3 groups, each containing   12 nodes.

 ************************************ Title ************************************
 

 ***************************** General Parameters ******************************
  
 output verbosity                               : normal  (1)
 write checkpoint data to                       : jadeite_4_30_GPa_cij__4__6.check
 type of calculation                            : geometry optimization
 stress calculation                             : on
 density difference calculation                 : off
 electron localisation func (ELF) calculation   : off
 Hirshfeld analysis                             : off
 unlimited duration calculation
 timing information                             : on
 memory usage estimate                          : on
 write final potential to formatted file        : off
 write final density to formatted file          : off
  
 output         length unit                     : A
 output           mass unit                     : amu
 output           time unit                     : ps
 output         charge unit                     : e
 output         energy unit                     : eV
 output          force unit                     : eV/A
 output       velocity unit                     : A/ps
 output       pressure unit                     : GPa
 output     inv_length unit                     : 1/A
 output      frequency unit                     : cm-1
 output force constant unit                     : eV/A**2
 output         volume unit                     : A**3
 output   IR intensity unit                     : (D/A)**2/amu
 output         dipole unit                     : D
 output         efield unit                     : eV/A/e
  
 wavefunctions paging                           : none
 data distribution                              : optimal for this architecture
 optimization strategy                          : maximize speed(+++)

 *********************** Exchange-Correlation Parameters ***********************
  
 using functional                               : Perdew Burke Ernzerhof
 Divergence correction                          : off
 DFT+D: Semi-empirical dispersion correction    : off

 ************************* Pseudopotential Parameters **************************
  
 pseudopotential representation                 : reciprocal space
 <beta|phi> representation                      : reciprocal space

 **************************** Basis Set Parameters *****************************
  
 plane wave basis set cut-off                   :   700.0000   eV
 finite basis set correction                    : none

 **************************** Electronic Parameters ****************************
  
 number of  electrons                           :  224.0    
 net charge of system                           :  0.000    
 net spin   of system                           :  0.000    
 number of  up  spins                           :  112.0    
 number of down spins                           :  112.0    
 treating system as non-spin-polarized
 number of bands                                :        112

 ********************* Electronic Minimization Parameters **********************
  
 Method: Treating system as non-metallic,
         and number of  SD  steps               :          1
         and number of  CG  steps               :          4
  
 total energy / atom convergence tol.           : 0.1000E-07   eV
 max force / atom convergence tol.              : ignored
 convergence tolerance window                   :          3   cycles
 max. number of SCF cycles                      :        100

 *********************** Population Analysis Parameters ************************
  
 Population analysis with cutoff                :  3.000       A

 ********************** Geometry Optimization Parameters ***********************
  
 optimization method                            : BFGS
 variable cell method                           : fixed basis quality
 max. number of steps                           :        300
 estimated bulk modulus                         :  500.0       GPa
 estimated <frequency>                          :  1668.       cm-1
 line minimiser tolerance                       :     0.4000
 total energy convergence tolerance             : 0.2000E-06   eV/atom
        max ionic |force| tolerance             : 0.1000E-02   eV/A
 max ionic |displacement| tolerance             : 0.1000E-02   A
   max |stress component| tolerance             : 0.1000E-02   GPa
 convergence tolerance window                   :          2   steps
 backup results every                           :          1   steps

 *******************************************************************************
  
 
                           -------------------------------
                                      Unit Cell
                           -------------------------------
        Real Lattice(A)                      Reciprocal Lattice(1/A)
   8.9813393   0.0000000  -2.9290832        0.6995822   0.0000000   0.0000000
   0.0000000   8.5603493   0.0000000        0.0000000   0.7339870   0.0000000
   0.0000000   0.0000000   5.2199179        0.3925607   0.0000000   1.2036943
 
                       Lattice parameters(A)       Cell Angles
                    a =    9.446903          alpha =   90.000000
                    b =    8.560349          beta  =  108.062696
                    c =    5.219918          gamma =   90.000000
 
                       Current cell volume =  401.325043       A**3
 
                           -------------------------------
                                     Cell Contents
                           -------------------------------
                         Total number of ions in cell =   40
                      Total number of species in cell =    4
                        Max number of any one species =   24
 
            xxxxxxxxxxxxxxxxxxxxxxxxxxxxxxxxxxxxxxxxxxxxxxxxxxxxxxxxxxxx
            x  Element    Atom        Fractional coordinates of atoms  x
            x            Number           u          v          w      x
            x----------------------------------------------------------x
            x  O            1         0.109277   0.076953   0.129205   x
            x  O            2         0.609279   0.576951   0.129208   x
            x  O            3         0.890723   0.076953   0.370795   x
            x  O            4         0.390721   0.576951   0.370792   x
            x  O            5         0.890723   0.923047   0.870795   x
            x  O            6         0.390721   0.423048   0.870792   x
            x  O            7         0.109277   0.923047   0.629205   x
            x  O            8         0.609279   0.423048   0.629208   x
            x  O            9         0.361047   0.263746   0.295383   x
            x  O           10         0.861046   0.763747   0.295382   x
            x  O           11         0.638953   0.263746   0.204617   x
            x  O           12         0.138954   0.763747   0.204618   x
            x  O           13         0.638953   0.736253   0.704617   x
            x  O           14         0.138954   0.236253   0.704618   x
            x  O           15         0.361047   0.736253   0.795383   x
            x  O           16         0.861046   0.236253   0.795382   x
            x  O           17         0.354029   0.008469   1.005059   x
            x  O           18         0.854032   0.508466   1.005069   x
            x  O           19         0.645971   0.008469   0.494941   x
            x  O           20         0.145968   0.508466   0.494931   x
            x  O           21         0.645971   0.991531  -0.005059   x
            x  O           22         0.145968   0.491534  -0.005069   x
            x  O           23         0.354029   0.991531   0.505059   x
            x  O           24         0.854032   0.491534   0.505069   x
            x  Na           1         0.000000   0.301230   0.250000   x
            x  Na           2         0.500000   0.801235   0.250000   x
            x  Na           3         0.000000   0.698770   0.750000   x
            x  Na           4         0.500000   0.198765   0.750000   x
            x  Al           1         0.000000   0.906276   0.250000   x
            x  Al           2         0.500000   0.406276   0.250000   x
            x  Al           3         0.000000   0.093724   0.750000   x
            x  Al           4         0.500000   0.593723   0.750000   x
            x  Si           1         0.290869   0.093825   0.228100   x
            x  Si           2         0.790871   0.593824   0.228106   x
            x  Si           3         0.709131   0.093825   0.271900   x
            x  Si           4         0.209129   0.593824   0.271894   x
            x  Si           5         0.709131   0.906175   0.771900   x
            x  Si           6         0.209129   0.406176   0.771894   x
            x  Si           7         0.290869   0.906175   0.728100   x
            x  Si           8         0.790871   0.406176   0.728106   x
            xxxxxxxxxxxxxxxxxxxxxxxxxxxxxxxxxxxxxxxxxxxxxxxxxxxxxxxxxxxx
 
 
                         No user defined ionic velocities
 
                           -------------------------------
                                   Details of Species
                           -------------------------------
 
                               Mass of species in AMU
                                    O   15.9994000
                                    Na   22.9897700
                                    Al   26.9815400
                                    Si   28.0855000
 
                          Electric Quadrupole Moment (Barn)
                                    O   -0.0255800 Isotope 17
                                    Na    0.1040000 Isotope 23
                                    Al    0.1466000 Isotope 27
                                    Si    1.0000000 No Isotope Defined
 
                          Files used for pseudopotentials:
                                    O O_00PBE.usp
                                    Na Na_00PBE.usp
                                    Al Al_00PBE.usp
                                    Si Si_00PBE.usp
 
                           -------------------------------
                              k-Points For BZ Sampling
                           -------------------------------
                       MP grid size for SCF calculation is  2  2  3
                         Number of kpoints used = 3
 
             +++++++++++++++++++++++++++++++++++++++++++++++++++++++
             +  Number       Fractional coordinates        Weight  +
             +-----------------------------------------------------+
             +     1  -0.250000  -0.250000   0.333333   0.3333333  +
             +     2   0.250000   0.250000   0.000000   0.3333333  +
             +     3   0.250000   0.250000   0.333333   0.3333333  +
             +++++++++++++++++++++++++++++++++++++++++++++++++++++++
 
                           -------------------------------
                               Symmetry and Constraints
                           -------------------------------
 
                      Number of symmetry operations   = 4
                      Number of ionic constraints     = 3
                      Maximum deviation from symmetry = 0.173858E-14     ANG
               Point group of crystal =     5: C2h, 2/m, 2/m
           Set iprint > 1 for details on symmetry rotations/translations
 
                          Centre of mass is constrained
             Set iprint > 1 for details of linear ionic constraints
 
                         Number of cell constraints= 6
                         Cell constraints are:  0 0 0 0 0 0
 
                         External pressure/stress (GPa)
                          4.30000   0.00000   0.00000
                                    4.30000   0.00000
                                              4.30000
  
+---------------- MEMORY AND SCRATCH DISK ESTIMATES PER NODE -----------------+
|                                                     Memory          Disk    |
| Model and support data                               60.0 MB         0.0 MB |
| Electronic energy minimisation requirements          16.7 MB         0.0 MB |
|                                               ----------------------------- |
| Approx. total storage required per node              76.7 MB         0.0 MB |
|                                                                             |
| Requirements will fluctuate during execution and may exceed these estimates |
+-----------------------------------------------------------------------------+
------------------------------------------------------------------------ <-- SCF
SCF loop      Energy                           Energy gain       Timer   <-- SCF
                                               per atom          (sec)   <-- SCF
------------------------------------------------------------------------ <-- SCF
Initial  -1.62306601E+003                                          5.04  <-- SCF
      1  -1.64280655E+004                    3.70124988E+002      17.58  <-- SCF
      2  -1.68158221E+004                    9.69391527E+000      29.47  <-- SCF
      3  -1.68455456E+004                    7.43085866E-001      41.93  <-- SCF
      4  -1.68460911E+004                    1.36393864E-002      53.46  <-- SCF
      5  -1.68460964E+004                    1.31763031E-004      65.49  <-- SCF
      6  -1.68460965E+004                    3.03078548E-006      77.75  <-- SCF
      7  -1.68460965E+004                    8.98706334E-008      89.83  <-- SCF
      8  -1.68460965E+004                    2.81878935E-009     101.50  <-- SCF
      9  -1.68460965E+004                    8.85536206E-011     114.78  <-- SCF
------------------------------------------------------------------------ <-- SCF
 
Final energy =  -16846.09653212     eV
(energy not corrected for finite basis set)
 
 
Writing model to jadeite_4_30_GPa_cij__4__6.check
 
+---------------- MEMORY AND SCRATCH DISK ESTIMATES PER NODE -----------------+
|                                                     Memory          Disk    |
| Model and support data                               53.1 MB         0.0 MB |
| Geometry minimisation requirements                   19.4 MB         0.0 MB |
|                                               ----------------------------- |
| Approx. total storage required per node              72.5 MB         0.0 MB |
|                                                                             |
| Requirements will fluctuate during execution and may exceed these estimates |
+-----------------------------------------------------------------------------+
 
 
 *********************************** Forces ***********************************
 *                                                                            *
 *                        Cartesian components (eV/A)                         *
 * -------------------------------------------------------------------------- *
 *                   x                    y                    z              *
 *                                                                            *
 * O         1      0.01827              0.01658             -0.02373         *
 * O         2      0.01812              0.01663             -0.02377         *
 * O         3     -0.01827              0.01658              0.02373         *
 * O         4     -0.01812              0.01663              0.02377         *
 * O         5     -0.01827             -0.01658              0.02373         *
 * O         6     -0.01812             -0.01663              0.02377         *
 * O         7      0.01827             -0.01658             -0.02373         *
 * O         8      0.01812             -0.01663             -0.02377         *
 * O         9      0.04134              0.03712             -0.03041         *
 * O        10      0.04148              0.03719             -0.03040         *
 * O        11     -0.04134              0.03712              0.03041         *
 * O        12     -0.04148              0.03719              0.03040         *
 * O        13     -0.04134             -0.03712              0.03041         *
 * O        14     -0.04148             -0.03719              0.03040         *
 * O        15      0.04134             -0.03712             -0.03041         *
 * O        16      0.04148             -0.03719             -0.03040         *
 * O        17     -0.00527              0.10064              0.19229         *
 * O        18     -0.00532              0.10072              0.19226         *
 * O        19      0.00527              0.10064             -0.19229         *
 * O        20      0.00532              0.10072             -0.19226         *
 * O        21      0.00527             -0.10064             -0.19229         *
 * O        22      0.00532             -0.10072             -0.19226         *
 * O        23     -0.00527             -0.10064              0.19229         *
 * O        24     -0.00532             -0.10072              0.19226         *
 * Na        1      0.00000             -0.02367              0.00000         *
 * Na        2      0.00000             -0.02377              0.00000         *
 * Na        3      0.00000              0.02367              0.00000         *
 * Na        4      0.00000              0.02377              0.00000         *
 * Al        1      0.00000             -0.04780              0.00000         *
 * Al        2      0.00000             -0.04769              0.00000         *
 * Al        3      0.00000              0.04780              0.00000         *
 * Al        4      0.00000              0.04769              0.00000         *
 * Si        1      0.00936             -0.01523             -0.15499         *
 * Si        2      0.00917             -0.01519             -0.15502         *
 * Si        3     -0.00936             -0.01523              0.15499         *
 * Si        4     -0.00917             -0.01519              0.15502         *
 * Si        5     -0.00936              0.01523              0.15499         *
 * Si        6     -0.00917              0.01519              0.15502         *
 * Si        7      0.00936              0.01523             -0.15499         *
 * Si        8      0.00917              0.01519             -0.15502         *
 *                                                                            *
 ******************************************************************************
 BFGS: finished iteration     0 with enthalpy= -1.68353256E+004 eV
  
 +-----------+-----------------+-----------------+------------+-----+ <-- BFGS
 | Parameter |      value      |    tolerance    |    units   | OK? | <-- BFGS
 +-----------+-----------------+-----------------+------------+-----+ <-- BFGS
 |  dE/ion   |   0.000000E+000 |   2.000000E-007 |         eV | No  | <-- BFGS
 |  |F|max   |   2.171064E-001 |   1.000000E-003 |       eV/A | No  | <-- BFGS
 |  |dR|max  |   0.000000E+000 |   1.000000E-003 |          A | No  | <-- BFGS
 +-----------+-----------------+-----------------+------------+-----+ <-- BFGS
  

================================================================================
 Starting BFGS iteration          1 ...
================================================================================
 
Writing model to jadeite_4_30_GPa_cij__4__6.check
  
 +------------+-------------+-------------+-----------------+ <-- min BFGS
 |    Step    |   lambda    |   F.delta   |    enthalpy     | <-- min BFGS
 +------------+-------------+-------------+-----------------+ <-- min BFGS
 |  previous  |    0.000000 |    0.000111 |   -16835.325574 | <-- min BFGS
 +------------+-------------+-------------+-----------------+ <-- min BFGS
  

--------------------------------------------------------------------------------
 BFGS: starting iteration         1 with trial guess (lambda=  1.000000)
--------------------------------------------------------------------------------
 
                           -------------------------------
                                     Cell Contents
                           -------------------------------
 
            xxxxxxxxxxxxxxxxxxxxxxxxxxxxxxxxxxxxxxxxxxxxxxxxxxxxxxxxxxxx
            x  Element    Atom        Fractional coordinates of atoms  x
            x            Number           u          v          w      x
            x----------------------------------------------------------x
            x  O            1         0.109287   0.076962   0.129189   x
            x  O            2         0.609289   0.576961   0.129191   x
            x  O            3         0.890713   0.076962   0.370811   x
            x  O            4         0.390711   0.576961   0.370809   x
            x  O            5         0.890713   0.923038   0.870811   x
            x  O            6         0.390711   0.423039   0.870809   x
            x  O            7         0.109287   0.923038   0.629189   x
            x  O            8         0.609289   0.423039   0.629191   x
            x  O            9         0.361069   0.263767   0.295367   x
            x  O           10         0.861068   0.763768   0.295366   x
            x  O           11         0.638931   0.263767   0.204633   x
            x  O           12         0.138932   0.763768   0.204634   x
            x  O           13         0.638931   0.736233   0.704633   x
            x  O           14         0.138932   0.236232   0.704634   x
            x  O           15         0.361069   0.736233   0.795367   x
            x  O           16         0.861068   0.236232   0.795366   x
            x  O           17         0.354026   0.008526   1.005236   x
            x  O           18         0.854029   0.508523   1.005246   x
            x  O           19         0.645974   0.008526   0.494764   x
            x  O           20         0.145971   0.508523   0.494754   x
            x  O           21         0.645974   0.991474  -0.005236   x
            x  O           22         0.145971   0.491477  -0.005246   x
            x  O           23         0.354026   0.991474   0.505236   x
            x  O           24         0.854029   0.491477   0.505246   x
            x  Na           1         0.000000   0.301217   0.250000   x
            x  Na           2         0.500000   0.801221   0.250000   x
            x  Na           3         0.000000   0.698783   0.750000   x
            x  Na           4         0.500000   0.198779   0.750000   x
            x  Al           1         0.000000   0.906249   0.250000   x
            x  Al           2         0.500000   0.406250   0.250000   x
            x  Al           3         0.000000   0.093751   0.750000   x
            x  Al           4         0.500000   0.593750   0.750000   x
            x  Si           1         0.290874   0.093816   0.227959   x
            x  Si           2         0.790876   0.593815   0.227965   x
            x  Si           3         0.709126   0.093816   0.272041   x
            x  Si           4         0.209124   0.593815   0.272035   x
            x  Si           5         0.709126   0.906184   0.772041   x
            x  Si           6         0.209124   0.406185   0.772035   x
            x  Si           7         0.290874   0.906184   0.727959   x
            x  Si           8         0.790876   0.406185   0.727965   x
            xxxxxxxxxxxxxxxxxxxxxxxxxxxxxxxxxxxxxxxxxxxxxxxxxxxxxxxxxxxx
 
 
------------------------------------------------------------------------ <-- SCF
SCF loop      Energy                           Energy gain       Timer   <-- SCF
                                               per atom          (sec)   <-- SCF
------------------------------------------------------------------------ <-- SCF
Initial  -1.68460888E+004                                        122.24  <-- SCF
      1  -1.68460991E+004                    2.56984757E-004     134.51  <-- SCF
      2  -1.68460991E+004                    8.65479004E-008     146.15  <-- SCF
      3  -1.68460991E+004                    1.45104195E-009     158.84  <-- SCF
      4  -1.68460991E+004                    3.32559449E-011     171.65  <-- SCF
------------------------------------------------------------------------ <-- SCF
 
Final energy =  -16846.09909412     eV
(energy not corrected for finite basis set)
 
 
 *********************************** Forces ***********************************
 *                                                                            *
 *                        Cartesian components (eV/A)                         *
 * -------------------------------------------------------------------------- *
 *                   x                    y                    z              *
 *                                                                            *
 * O         1      0.01737              0.01534             -0.02105         *
 * O         2      0.01721              0.01539             -0.02109         *
 * O         3     -0.01737              0.01534              0.02105         *
 * O         4     -0.01721              0.01539              0.02109         *
 * O         5     -0.01737             -0.01534              0.02105         *
 * O         6     -0.01721             -0.01539              0.02109         *
 * O         7      0.01737             -0.01534             -0.02105         *
 * O         8      0.01721             -0.01539             -0.02109         *
 * O         9      0.03372              0.02330             -0.02618         *
 * O        10      0.03382              0.02333             -0.02617         *
 * O        11     -0.03372              0.02330              0.02618         *
 * O        12     -0.03382              0.02333              0.02617         *
 * O        13     -0.03372             -0.02330              0.02618         *
 * O        14     -0.03382             -0.02333              0.02617         *
 * O        15      0.03372             -0.02330             -0.02618         *
 * O        16      0.03382             -0.02333             -0.02617         *
 * O        17     -0.00177              0.06382              0.13676         *
 * O        18     -0.00184              0.06389              0.13672         *
 * O        19      0.00177              0.06382             -0.13676         *
 * O        20      0.00184              0.06389             -0.13672         *
 * O        21      0.00177             -0.06382             -0.13676         *
 * O        22      0.00184             -0.06389             -0.13672         *
 * O        23     -0.00177             -0.06382              0.13676         *
 * O        24     -0.00184             -0.06389              0.13672         *
 * Na        1      0.00000             -0.02405              0.00000         *
 * Na        2      0.00000             -0.02416              0.00000         *
 * Na        3      0.00000              0.02405              0.00000         *
 * Na        4      0.00000              0.02416              0.00000         *
 * Al        1      0.00000             -0.04236              0.00000         *
 * Al        2      0.00000             -0.04227              0.00000         *
 * Al        3      0.00000              0.04236              0.00000         *
 * Al        4      0.00000              0.04227              0.00000         *
 * Si        1      0.01093             -0.00537             -0.10323         *
 * Si        2      0.01077             -0.00531             -0.10325         *
 * Si        3     -0.01093             -0.00537              0.10323         *
 * Si        4     -0.01077             -0.00531              0.10325         *
 * Si        5     -0.01093              0.00537              0.10323         *
 * Si        6     -0.01077              0.00531              0.10325         *
 * Si        7      0.01093              0.00537             -0.10323         *
 * Si        8      0.01077              0.00531             -0.10325         *
 *                                                                            *
 ******************************************************************************
  
 +------------+-------------+-------------+-----------------+ <-- min BFGS
 |    Step    |   lambda    |   F.delta   |    enthalpy     | <-- min BFGS
 +------------+-------------+-------------+-----------------+ <-- min BFGS
 |  previous  |    0.000000 |    0.000111 |   -16835.325574 | <-- min BFGS
 | trial step |    1.000000 |    0.000077 |   -16835.328136 | <-- min BFGS
 +------------+-------------+-------------+-----------------+ <-- min BFGS
  

--------------------------------------------------------------------------------
 BFGS: improving iteration         1 with line minimization (lambda=  3.288147)
--------------------------------------------------------------------------------
 
                           -------------------------------
                                     Cell Contents
                           -------------------------------
 
            xxxxxxxxxxxxxxxxxxxxxxxxxxxxxxxxxxxxxxxxxxxxxxxxxxxxxxxxxxxx
            x  Element    Atom        Fractional coordinates of atoms  x
            x            Number           u          v          w      x
            x----------------------------------------------------------x
            x  O            1         0.109309   0.076984   0.129151   x
            x  O            2         0.609311   0.576982   0.129154   x
            x  O            3         0.890691   0.076984   0.370849   x
            x  O            4         0.390689   0.576982   0.370846   x
            x  O            5         0.890691   0.923016   0.870849   x
            x  O            6         0.390689   0.423018   0.870846   x
            x  O            7         0.109309   0.923016   0.629151   x
            x  O            8         0.609311   0.423018   0.629154   x
            x  O            9         0.361120   0.263815   0.295331   x
            x  O           10         0.861119   0.763816   0.295331   x
            x  O           11         0.638880   0.263815   0.204669   x
            x  O           12         0.138881   0.763816   0.204669   x
            x  O           13         0.638880   0.736185   0.704669   x
            x  O           14         0.138881   0.236184   0.704669   x
            x  O           15         0.361120   0.736185   0.795331   x
            x  O           16         0.861119   0.236184   0.795331   x
            x  O           17         0.354020   0.008656   1.005640   x
            x  O           18         0.854023   0.508653   1.005649   x
            x  O           19         0.645980   0.008656   0.494360   x
            x  O           20         0.145977   0.508653   0.494351   x
            x  O           21         0.645980   0.991344  -0.005640   x
            x  O           22         0.145977   0.491347  -0.005649   x
            x  O           23         0.354020   0.991344   0.505640   x
            x  O           24         0.854023   0.491347   0.505649   x
            x  Na           1         0.000000   0.301186   0.250000   x
            x  Na           2         0.500000   0.801190   0.250000   x
            x  Na           3         0.000000   0.698814   0.750000   x
            x  Na           4         0.500000   0.198810   0.750000   x
            x  Al           1         0.000000   0.906188   0.250000   x
            x  Al           2         0.500000   0.406188   0.250000   x
            x  Al           3         0.000000   0.093812   0.750000   x
            x  Al           4         0.500000   0.593812   0.750000   x
            x  Si           1         0.290886   0.093796   0.227637   x
            x  Si           2         0.790887   0.593795   0.227643   x
            x  Si           3         0.709114   0.093796   0.272363   x
            x  Si           4         0.209113   0.593795   0.272357   x
            x  Si           5         0.709114   0.906204   0.772363   x
            x  Si           6         0.209113   0.406205   0.772357   x
            x  Si           7         0.290886   0.906204   0.727637   x
            x  Si           8         0.790887   0.406205   0.727643   x
            xxxxxxxxxxxxxxxxxxxxxxxxxxxxxxxxxxxxxxxxxxxxxxxxxxxxxxxxxxxx
 
 
------------------------------------------------------------------------ <-- SCF
SCF loop      Energy                           Energy gain       Timer   <-- SCF
                                               per atom          (sec)   <-- SCF
------------------------------------------------------------------------ <-- SCF
Initial  -1.68460562E+004                                        176.84  <-- SCF
      1  -1.68461015E+004                    1.13262295E-003     189.06  <-- SCF
      2  -1.68461015E+004                    4.10020355E-007     200.91  <-- SCF
      3  -1.68461015E+004                    7.47176008E-009     212.31  <-- SCF
      4  -1.68461015E+004                    1.71074768E-010     224.46  <-- SCF
------------------------------------------------------------------------ <-- SCF
 
Final energy =  -16846.10149327     eV
(energy not corrected for finite basis set)
 
 
 *********************************** Forces ***********************************
 *                                                                            *
 *                        Cartesian components (eV/A)                         *
 * -------------------------------------------------------------------------- *
 *                   x                    y                    z              *
 *                                                                            *
 * O         1      0.01533              0.01252             -0.01490         *
 * O         2      0.01518              0.01256             -0.01494         *
 * O         3     -0.01533              0.01252              0.01490         *
 * O         4     -0.01518              0.01256              0.01494         *
 * O         5     -0.01533             -0.01252              0.01490         *
 * O         6     -0.01518             -0.01256              0.01494         *
 * O         7      0.01533             -0.01252             -0.01490         *
 * O         8      0.01518             -0.01256             -0.01494         *
 * O         9      0.01624             -0.00822             -0.01650         *
 * O        10      0.01627             -0.00827             -0.01649         *
 * O        11     -0.01624             -0.00822              0.01650         *
 * O        12     -0.01627             -0.00827              0.01649         *
 * O        13     -0.01624              0.00822              0.01650         *
 * O        14     -0.01627              0.00827              0.01649         *
 * O        15      0.01624              0.00822             -0.01650         *
 * O        16      0.01627              0.00827             -0.01649         *
 * O        17      0.00727             -0.02049              0.00929         *
 * O        18      0.00717             -0.02044              0.00923         *
 * O        19     -0.00727             -0.02049             -0.00929         *
 * O        20     -0.00717             -0.02044             -0.00923         *
 * O        21     -0.00727              0.02049             -0.00929         *
 * O        22     -0.00717              0.02044             -0.00923         *
 * O        23      0.00727              0.02049              0.00929         *
 * O        24      0.00717              0.02044              0.00923         *
 * Na        1      0.00000             -0.02494              0.00000         *
 * Na        2      0.00000             -0.02503              0.00000         *
 * Na        3      0.00000              0.02494              0.00000         *
 * Na        4      0.00000              0.02503              0.00000         *
 * Al        1      0.00000             -0.02987              0.00000         *
 * Al        2      0.00000             -0.02983              0.00000         *
 * Al        3      0.00000              0.02987              0.00000         *
 * Al        4      0.00000              0.02983              0.00000         *
 * Si        1      0.01339              0.01859              0.01567         *
 * Si        2      0.01332              0.01868              0.01566         *
 * Si        3     -0.01339              0.01859             -0.01567         *
 * Si        4     -0.01332              0.01868             -0.01566         *
 * Si        5     -0.01339             -0.01859             -0.01567         *
 * Si        6     -0.01332             -0.01868             -0.01566         *
 * Si        7      0.01339             -0.01859              0.01567         *
 * Si        8      0.01332             -0.01868              0.01566         *
 *                                                                            *
 ******************************************************************************
  
 +------------+-------------+-------------+-----------------+ <-- min BFGS
 |    Step    |   lambda    |   F.delta   |    enthalpy     | <-- min BFGS
 +------------+-------------+-------------+-----------------+ <-- min BFGS
 |  previous  |    0.000000 |    0.000111 |   -16835.325574 | <-- min BFGS
 | trial step |    1.000000 |    0.000077 |   -16835.328136 | <-- min BFGS
 |  line step |    3.288147 |    0.000000 |   -16835.330535 | <-- min BFGS
 +------------+-------------+-------------+-----------------+ <-- min BFGS
  
 BFGS: finished iteration     1 with enthalpy= -1.68353305E+004 eV
  
 +-----------+-----------------+-----------------+------------+-----+ <-- BFGS
 | Parameter |      value      |    tolerance    |    units   | OK? | <-- BFGS
 +-----------+-----------------+-----------------+------------+-----+ <-- BFGS
 |  dE/ion   |   1.240288E-004 |   2.000000E-007 |         eV | No  | <-- BFGS
 |  |F|max   |   2.987339E-002 |   1.000000E-003 |       eV/A | No  | <-- BFGS
 |  |dR|max  |   3.452518E-003 |   1.000000E-003 |          A | No  | <-- BFGS
 +-----------+-----------------+-----------------+------------+-----+ <-- BFGS
  

================================================================================
 Starting BFGS iteration          2 ...
================================================================================
 
Writing model to jadeite_4_30_GPa_cij__4__6.check
  
 +------------+-------------+-------------+-----------------+ <-- min BFGS
 |    Step    |   lambda    |   F.delta   |    enthalpy     | <-- min BFGS
 +------------+-------------+-------------+-----------------+ <-- min BFGS
 |  previous  |    0.000000 |    0.000005 |   -16835.330535 | <-- min BFGS
 +------------+-------------+-------------+-----------------+ <-- min BFGS
  

--------------------------------------------------------------------------------
 BFGS: starting iteration         2 with trial guess (lambda=  1.000000)
--------------------------------------------------------------------------------
 
                           -------------------------------
                                     Cell Contents
                           -------------------------------
 
            xxxxxxxxxxxxxxxxxxxxxxxxxxxxxxxxxxxxxxxxxxxxxxxxxxxxxxxxxxxx
            x  Element    Atom        Fractional coordinates of atoms  x
            x            Number           u          v          w      x
            x----------------------------------------------------------x
            x  O            1         0.109318   0.076991   0.129141   x
            x  O            2         0.609320   0.576990   0.129144   x
            x  O            3         0.890682   0.076991   0.370859   x
            x  O            4         0.390680   0.576990   0.370856   x
            x  O            5         0.890682   0.923009   0.870859   x
            x  O            6         0.390680   0.423010   0.870856   x
            x  O            7         0.109318   0.923009   0.629141   x
            x  O            8         0.609320   0.423010   0.629144   x
            x  O            9         0.361130   0.263812   0.295321   x
            x  O           10         0.861129   0.763812   0.295320   x
            x  O           11         0.638870   0.263812   0.204679   x
            x  O           12         0.138871   0.763812   0.204680   x
            x  O           13         0.638870   0.736188   0.704679   x
            x  O           14         0.138871   0.236188   0.704680   x
            x  O           15         0.361130   0.736188   0.795321   x
            x  O           16         0.861129   0.236188   0.795320   x
            x  O           17         0.354023   0.008647   1.005657   x
            x  O           18         0.854026   0.508644   1.005667   x
            x  O           19         0.645977   0.008647   0.494343   x
            x  O           20         0.145974   0.508644   0.494333   x
            x  O           21         0.645977   0.991353  -0.005657   x
            x  O           22         0.145974   0.491356  -0.005667   x
            x  O           23         0.354023   0.991353   0.505657   x
            x  O           24         0.854026   0.491356   0.505667   x
            x  Na           1         0.000000   0.301171   0.250000   x
            x  Na           2         0.500000   0.801176   0.250000   x
            x  Na           3         0.000000   0.698829   0.750000   x
            x  Na           4         0.500000   0.198824   0.750000   x
            x  Al           1         0.000000   0.906170   0.250000   x
            x  Al           2         0.500000   0.406170   0.250000   x
            x  Al           3         0.000000   0.093830   0.750000   x
            x  Al           4         0.500000   0.593830   0.750000   x
            x  Si           1         0.290893   0.093806   0.227650   x
            x  Si           2         0.790895   0.593806   0.227656   x
            x  Si           3         0.709107   0.093806   0.272350   x
            x  Si           4         0.209105   0.593806   0.272344   x
            x  Si           5         0.709107   0.906194   0.772350   x
            x  Si           6         0.209105   0.406194   0.772344   x
            x  Si           7         0.290893   0.906194   0.727650   x
            x  Si           8         0.790895   0.406194   0.727656   x
            xxxxxxxxxxxxxxxxxxxxxxxxxxxxxxxxxxxxxxxxxxxxxxxxxxxxxxxxxxxx
 
 
------------------------------------------------------------------------ <-- SCF
SCF loop      Energy                           Energy gain       Timer   <-- SCF
                                               per atom          (sec)   <-- SCF
------------------------------------------------------------------------ <-- SCF
Initial  -1.68461011E+004                                        230.58  <-- SCF
      1  -1.68461016E+004                    1.19975523E-005     242.75  <-- SCF
      2  -1.68461016E+004                    5.48359595E-009     255.01  <-- SCF
      3  -1.68461016E+004                    4.70996987E-011     267.31  <-- SCF
------------------------------------------------------------------------ <-- SCF
 
Final energy =  -16846.10161542     eV
(energy not corrected for finite basis set)
 
 
 *********************************** Forces ***********************************
 *                                                                            *
 *                        Cartesian components (eV/A)                         *
 * -------------------------------------------------------------------------- *
 *                   x                    y                    z              *
 *                                                                            *
 * O         1      0.01387              0.01178             -0.01401         *
 * O         2      0.01374              0.01183             -0.01404         *
 * O         3     -0.01387              0.01178              0.01401         *
 * O         4     -0.01374              0.01183              0.01404         *
 * O         5     -0.01387             -0.01178              0.01401         *
 * O         6     -0.01374             -0.01183              0.01404         *
 * O         7      0.01387             -0.01178             -0.01401         *
 * O         8      0.01374             -0.01183             -0.01404         *
 * O         9      0.01651             -0.00573             -0.01516         *
 * O        10      0.01655             -0.00576             -0.01515         *
 * O        11     -0.01651             -0.00573              0.01516         *
 * O        12     -0.01655             -0.00576              0.01515         *
 * O        13     -0.01651              0.00573              0.01516         *
 * O        14     -0.01655              0.00576              0.01515         *
 * O        15      0.01651              0.00573             -0.01516         *
 * O        16      0.01655              0.00576             -0.01515         *
 * O        17      0.00680             -0.02042              0.00944         *
 * O        18      0.00670             -0.02036              0.00938         *
 * O        19     -0.00680             -0.02042             -0.00944         *
 * O        20     -0.00670             -0.02036             -0.00938         *
 * O        21     -0.00680              0.02042             -0.00944         *
 * O        22     -0.00670              0.02036             -0.00938         *
 * O        23      0.00680              0.02042              0.00944         *
 * O        24      0.00670              0.02036              0.00938         *
 * Na        1      0.00000             -0.02438              0.00000         *
 * Na        2      0.00000             -0.02448              0.00000         *
 * Na        3      0.00000              0.02438              0.00000         *
 * Na        4      0.00000              0.02448              0.00000         *
 * Al        1      0.00000             -0.02680              0.00000         *
 * Al        2      0.00000             -0.02676              0.00000         *
 * Al        3      0.00000              0.02680              0.00000         *
 * Al        4      0.00000              0.02676              0.00000         *
 * Si        1      0.01246              0.01323              0.01462         *
 * Si        2      0.01238              0.01330              0.01461         *
 * Si        3     -0.01246              0.01323             -0.01462         *
 * Si        4     -0.01238              0.01330             -0.01461         *
 * Si        5     -0.01246             -0.01323             -0.01462         *
 * Si        6     -0.01238             -0.01330             -0.01461         *
 * Si        7      0.01246             -0.01323              0.01462         *
 * Si        8      0.01238             -0.01330              0.01461         *
 *                                                                            *
 ******************************************************************************
  
 +------------+-------------+-------------+-----------------+ <-- min BFGS
 |    Step    |   lambda    |   F.delta   |    enthalpy     | <-- min BFGS
 +------------+-------------+-------------+-----------------+ <-- min BFGS
 |  previous  |    0.000000 |    0.000005 |   -16835.330535 | <-- min BFGS
 | trial step |    1.000000 |    0.000004 |   -16835.330657 | <-- min BFGS
 +------------+-------------+-------------+-----------------+ <-- min BFGS
  

--------------------------------------------------------------------------------
 BFGS: improving iteration         2 with line minimization (lambda= 12.631691)
--------------------------------------------------------------------------------
 
                           -------------------------------
                                     Cell Contents
                           -------------------------------
 
            xxxxxxxxxxxxxxxxxxxxxxxxxxxxxxxxxxxxxxxxxxxxxxxxxxxxxxxxxxxx
            x  Element    Atom        Fractional coordinates of atoms  x
            x            Number           u          v          w      x
            x----------------------------------------------------------x
            x  O            1         0.109418   0.077077   0.129028   x
            x  O            2         0.609419   0.577076   0.129029   x
            x  O            3         0.890582   0.077077   0.370972   x
            x  O            4         0.390581   0.577076   0.370971   x
            x  O            5         0.890582   0.922923   0.870972   x
            x  O            6         0.390581   0.422924   0.870971   x
            x  O            7         0.109418   0.922923   0.629028   x
            x  O            8         0.609419   0.422924   0.629029   x
            x  O            9         0.361241   0.263767   0.295193   x
            x  O           10         0.861240   0.763767   0.295193   x
            x  O           11         0.638759   0.263767   0.204807   x
            x  O           12         0.138760   0.763767   0.204807   x
            x  O           13         0.638759   0.736233   0.704807   x
            x  O           14         0.138760   0.236233   0.704807   x
            x  O           15         0.361241   0.736233   0.795193   x
            x  O           16         0.861240   0.236233   0.795193   x
            x  O           17         0.354068   0.008537   1.005857   x
            x  O           18         0.854070   0.508534   1.005866   x
            x  O           19         0.645932   0.008537   0.494143   x
            x  O           20         0.145930   0.508534   0.494134   x
            x  O           21         0.645932   0.991463  -0.005857   x
            x  O           22         0.145930   0.491466  -0.005866   x
            x  O           23         0.354068   0.991463   0.505857   x
            x  O           24         0.854070   0.491466   0.505866   x
            x  Na           1         0.000000   0.301002   0.250000   x
            x  Na           2         0.500000   0.801006   0.250000   x
            x  Na           3         0.000000   0.698998   0.750000   x
            x  Na           4         0.500000   0.198994   0.750000   x
            x  Al           1         0.000000   0.905963   0.250000   x
            x  Al           2         0.500000   0.405963   0.250000   x
            x  Al           3         0.000000   0.094037   0.750000   x
            x  Al           4         0.500000   0.594037   0.750000   x
            x  Si           1         0.290979   0.093925   0.227806   x
            x  Si           2         0.790980   0.593924   0.227811   x
            x  Si           3         0.709021   0.093925   0.272194   x
            x  Si           4         0.209020   0.593924   0.272189   x
            x  Si           5         0.709021   0.906075   0.772194   x
            x  Si           6         0.209020   0.406076   0.772189   x
            x  Si           7         0.290979   0.906075   0.727806   x
            x  Si           8         0.790980   0.406076   0.727811   x
            xxxxxxxxxxxxxxxxxxxxxxxxxxxxxxxxxxxxxxxxxxxxxxxxxxxxxxxxxxxx
 
 
------------------------------------------------------------------------ <-- SCF
SCF loop      Energy                           Energy gain       Timer   <-- SCF
                                               per atom          (sec)   <-- SCF
------------------------------------------------------------------------ <-- SCF
Initial  -1.68460645E+004                                        272.52  <-- SCF
      1  -1.68461023E+004                    9.44767350E-004     284.16  <-- SCF
      2  -1.68461023E+004                    4.58056170E-007     295.92  <-- SCF
      3  -1.68461023E+004                    2.94090828E-009     307.29  <-- SCF
      4  -1.68461023E+004                    5.91646461E-011     320.30  <-- SCF
------------------------------------------------------------------------ <-- SCF
 
Final energy =  -16846.10229742     eV
(energy not corrected for finite basis set)
 
 
 *********************************** Forces ***********************************
 *                                                                            *
 *                        Cartesian components (eV/A)                         *
 * -------------------------------------------------------------------------- *
 *                   x                    y                    z              *
 *                                                                            *
 * O         1     -0.00299              0.00335             -0.00377         *
 * O         2     -0.00287              0.00344             -0.00377         *
 * O         3      0.00299              0.00335              0.00377         *
 * O         4      0.00287              0.00344              0.00377         *
 * O         5      0.00299             -0.00335              0.00377         *
 * O         6      0.00287             -0.00344              0.00377         *
 * O         7     -0.00299             -0.00335             -0.00377         *
 * O         8     -0.00287             -0.00344             -0.00377         *
 * O         9      0.01971              0.02335              0.00037         *
 * O        10      0.01980              0.02347              0.00040         *
 * O        11     -0.01971              0.02335             -0.00037         *
 * O        12     -0.01980              0.02347             -0.00040         *
 * O        13     -0.01971             -0.02335             -0.00037         *
 * O        14     -0.01980             -0.02347             -0.00040         *
 * O        15      0.01971             -0.02335              0.00037         *
 * O        16      0.01980             -0.02347              0.00040         *
 * O        17      0.00131             -0.01969              0.01102         *
 * O        18      0.00119             -0.01965              0.01098         *
 * O        19     -0.00131             -0.01969             -0.01102         *
 * O        20     -0.00119             -0.01965             -0.01098         *
 * O        21     -0.00131              0.01969             -0.01102         *
 * O        22     -0.00119              0.01965             -0.01098         *
 * O        23      0.00131              0.01969              0.01102         *
 * O        24      0.00119              0.01965              0.01098         *
 * Na        1      0.00000             -0.01779              0.00000         *
 * Na        2      0.00000             -0.01789              0.00000         *
 * Na        3      0.00000              0.01779              0.00000         *
 * Na        4      0.00000              0.01789              0.00000         *
 * Al        1      0.00000              0.00894              0.00000         *
 * Al        2      0.00000              0.00893              0.00000         *
 * Al        3      0.00000             -0.00894              0.00000         *
 * Al        4      0.00000             -0.00893              0.00000         *
 * Si        1      0.00158             -0.04920              0.00244         *
 * Si        2      0.00136             -0.04940              0.00239         *
 * Si        3     -0.00158             -0.04920             -0.00244         *
 * Si        4     -0.00136             -0.04940             -0.00239         *
 * Si        5     -0.00158              0.04920             -0.00244         *
 * Si        6     -0.00136              0.04940             -0.00239         *
 * Si        7      0.00158              0.04920              0.00244         *
 * Si        8      0.00136              0.04940              0.00239         *
 *                                                                            *
 ******************************************************************************
  
 +------------+-------------+-------------+-----------------+ <-- min BFGS
 |    Step    |   lambda    |   F.delta   |    enthalpy     | <-- min BFGS
 +------------+-------------+-------------+-----------------+ <-- min BFGS
 |  previous  |    0.000000 |    0.000005 |   -16835.330535 | <-- min BFGS
 | trial step |    1.000000 |    0.000004 |   -16835.330657 | <-- min BFGS
 |  line step |   12.631691 |    0.000000 |   -16835.331339 | <-- min BFGS
 +------------+-------------+-------------+-----------------+ <-- min BFGS
  
 BFGS: finished iteration     2 with enthalpy= -1.68353313E+004 eV
  
 +-----------+-----------------+-----------------+------------+-----+ <-- BFGS
 | Parameter |      value      |    tolerance    |    units   | OK? | <-- BFGS
 +-----------+-----------------+-----------------+------------+-----+ <-- BFGS
 |  dE/ion   |   2.010374E-005 |   2.000000E-007 |         eV | No  | <-- BFGS
 |  |F|max   |   4.947346E-002 |   1.000000E-003 |       eV/A | No  | <-- BFGS
 |  |dR|max  |   1.927359E-003 |   1.000000E-003 |          A | No  | <-- BFGS
 +-----------+-----------------+-----------------+------------+-----+ <-- BFGS
  

================================================================================
 Starting BFGS iteration          3 ...
================================================================================
 
Writing model to jadeite_4_30_GPa_cij__4__6.check
  
 +------------+-------------+-------------+-----------------+ <-- min BFGS
 |    Step    |   lambda    |   F.delta   |    enthalpy     | <-- min BFGS
 +------------+-------------+-------------+-----------------+ <-- min BFGS
 |  previous  |    0.000000 |    0.000006 |   -16835.331339 | <-- min BFGS
 +------------+-------------+-------------+-----------------+ <-- min BFGS
  

--------------------------------------------------------------------------------
 BFGS: starting iteration         3 with trial guess (lambda=  1.000000)
--------------------------------------------------------------------------------
 
                           -------------------------------
                                     Cell Contents
                           -------------------------------
 
            xxxxxxxxxxxxxxxxxxxxxxxxxxxxxxxxxxxxxxxxxxxxxxxxxxxxxxxxxxxx
            x  Element    Atom        Fractional coordinates of atoms  x
            x            Number           u          v          w      x
            x----------------------------------------------------------x
            x  O            1         0.109428   0.077090   0.129009   x
            x  O            2         0.609429   0.577089   0.129011   x
            x  O            3         0.890572   0.077090   0.370991   x
            x  O            4         0.390571   0.577089   0.370989   x
            x  O            5         0.890572   0.922910   0.870991   x
            x  O            6         0.390571   0.422911   0.870989   x
            x  O            7         0.109428   0.922910   0.629009   x
            x  O            8         0.609429   0.422911   0.629011   x
            x  O            9         0.361265   0.263776   0.295184   x
            x  O           10         0.861265   0.763776   0.295184   x
            x  O           11         0.638735   0.263776   0.204816   x
            x  O           12         0.138735   0.763776   0.204816   x
            x  O           13         0.638735   0.736224   0.704816   x
            x  O           14         0.138735   0.236224   0.704816   x
            x  O           15         0.361265   0.736224   0.795184   x
            x  O           16         0.861265   0.236224   0.795184   x
            x  O           17         0.354073   0.008517   1.005902   x
            x  O           18         0.854075   0.508514   1.005911   x
            x  O           19         0.645927   0.008517   0.494098   x
            x  O           20         0.145925   0.508514   0.494089   x
            x  O           21         0.645927   0.991483  -0.005902   x
            x  O           22         0.145925   0.491486  -0.005911   x
            x  O           23         0.354073   0.991483   0.505902   x
            x  O           24         0.854075   0.491486   0.505911   x
            x  Na           1         0.000000   0.300972   0.250000   x
            x  Na           2         0.500000   0.800975   0.250000   x
            x  Na           3         0.000000   0.699028   0.750000   x
            x  Na           4         0.500000   0.199025   0.750000   x
            x  Al           1         0.000000   0.905942   0.250000   x
            x  Al           2         0.500000   0.405943   0.250000   x
            x  Al           3         0.000000   0.094058   0.750000   x
            x  Al           4         0.500000   0.594057   0.750000   x
            x  Si           1         0.290990   0.093910   0.227817   x
            x  Si           2         0.790991   0.593909   0.227822   x
            x  Si           3         0.709010   0.093910   0.272183   x
            x  Si           4         0.209009   0.593909   0.272178   x
            x  Si           5         0.709010   0.906090   0.772183   x
            x  Si           6         0.209009   0.406091   0.772178   x
            x  Si           7         0.290990   0.906090   0.727817   x
            x  Si           8         0.790991   0.406091   0.727822   x
            xxxxxxxxxxxxxxxxxxxxxxxxxxxxxxxxxxxxxxxxxxxxxxxxxxxxxxxxxxxx
 
 
------------------------------------------------------------------------ <-- SCF
SCF loop      Energy                           Energy gain       Timer   <-- SCF
                                               per atom          (sec)   <-- SCF
------------------------------------------------------------------------ <-- SCF
Initial  -1.68461012E+004                                        326.26  <-- SCF
      1  -1.68461024E+004                    3.11595348E-005     338.05  <-- SCF
      2  -1.68461024E+004                    1.45968076E-008     349.98  <-- SCF
      3  -1.68461024E+004                    9.58235248E-011     362.20  <-- SCF
      4  -1.68461024E+004                    2.32018220E-012     376.72  <-- SCF
------------------------------------------------------------------------ <-- SCF
 
Final energy =  -16846.10244483     eV
(energy not corrected for finite basis set)
 
 
 *********************************** Forces ***********************************
 *                                                                            *
 *                        Cartesian components (eV/A)                         *
 * -------------------------------------------------------------------------- *
 *                   x                    y                    z              *
 *                                                                            *
 * O         1     -0.00342              0.00140             -0.00167         *
 * O         2     -0.00333              0.00147             -0.00167         *
 * O         3      0.00342              0.00140              0.00167         *
 * O         4      0.00333              0.00147              0.00167         *
 * O         5      0.00342             -0.00140              0.00167         *
 * O         6      0.00333             -0.00147              0.00167         *
 * O         7     -0.00342             -0.00140             -0.00167         *
 * O         8     -0.00333             -0.00147             -0.00167         *
 * O         9      0.01397              0.01460              0.00205         *
 * O        10      0.01402              0.01466              0.00208         *
 * O        11     -0.01397              0.01460             -0.00205         *
 * O        12     -0.01402              0.01466             -0.00208         *
 * O        13     -0.01397             -0.01460             -0.00205         *
 * O        14     -0.01402             -0.01466             -0.00208         *
 * O        15      0.01397             -0.01460              0.00205         *
 * O        16      0.01402             -0.01466              0.00208         *
 * O        17      0.00286             -0.02133              0.00799         *
 * O        18      0.00273             -0.02130              0.00795         *
 * O        19     -0.00286             -0.02133             -0.00799         *
 * O        20     -0.00273             -0.02130             -0.00795         *
 * O        21     -0.00286              0.02133             -0.00799         *
 * O        22     -0.00273              0.02130             -0.00795         *
 * O        23      0.00286              0.02133              0.00799         *
 * O        24      0.00273              0.02130              0.00795         *
 * Na        1      0.00000             -0.01779              0.00000         *
 * Na        2      0.00000             -0.01787              0.00000         *
 * Na        3      0.00000              0.01779              0.00000         *
 * Na        4      0.00000              0.01787              0.00000         *
 * Al        1      0.00000              0.01237              0.00000         *
 * Al        2      0.00000              0.01235              0.00000         *
 * Al        3      0.00000             -0.01237              0.00000         *
 * Al        4      0.00000             -0.01235              0.00000         *
 * Si        1      0.00162             -0.03938              0.00487         *
 * Si        2      0.00148             -0.03952              0.00482         *
 * Si        3     -0.00162             -0.03938             -0.00487         *
 * Si        4     -0.00148             -0.03952             -0.00482         *
 * Si        5     -0.00162              0.03938             -0.00487         *
 * Si        6     -0.00148              0.03952             -0.00482         *
 * Si        7      0.00162              0.03938              0.00487         *
 * Si        8      0.00148              0.03952              0.00482         *
 *                                                                            *
 ******************************************************************************
  
 +------------+-------------+-------------+-----------------+ <-- min BFGS
 |    Step    |   lambda    |   F.delta   |    enthalpy     | <-- min BFGS
 +------------+-------------+-------------+-----------------+ <-- min BFGS
 |  previous  |    0.000000 |    0.000006 |   -16835.331339 | <-- min BFGS
 | trial step |    1.000000 |    0.000005 |   -16835.331486 | <-- min BFGS
 +------------+-------------+-------------+-----------------+ <-- min BFGS
  

--------------------------------------------------------------------------------
 BFGS: improving iteration         3 with line minimization (lambda=  4.589751)
--------------------------------------------------------------------------------
 
                           -------------------------------
                                     Cell Contents
                           -------------------------------
 
            xxxxxxxxxxxxxxxxxxxxxxxxxxxxxxxxxxxxxxxxxxxxxxxxxxxxxxxxxxxx
            x  Element    Atom        Fractional coordinates of atoms  x
            x            Number           u          v          w      x
            x----------------------------------------------------------x
            x  O            1         0.109466   0.077134   0.128943   x
            x  O            2         0.609466   0.577133   0.128944   x
            x  O            3         0.890534   0.077134   0.371057   x
            x  O            4         0.390534   0.577133   0.371056   x
            x  O            5         0.890534   0.922866   0.871057   x
            x  O            6         0.390534   0.422867   0.871056   x
            x  O            7         0.109466   0.922866   0.628943   x
            x  O            8         0.609466   0.422867   0.628944   x
            x  O            9         0.361354   0.263810   0.295151   x
            x  O           10         0.861354   0.763810   0.295150   x
            x  O           11         0.638646   0.263810   0.204849   x
            x  O           12         0.138646   0.763810   0.204850   x
            x  O           13         0.638646   0.736190   0.704849   x
            x  O           14         0.138646   0.236190   0.704850   x
            x  O           15         0.361354   0.736190   0.795151   x
            x  O           16         0.861354   0.236190   0.795150   x
            x  O           17         0.354093   0.008445   1.006065   x
            x  O           18         0.854095   0.508442   1.006073   x
            x  O           19         0.645907   0.008445   0.493935   x
            x  O           20         0.145905   0.508442   0.493927   x
            x  O           21         0.645907   0.991555  -0.006065   x
            x  O           22         0.145905   0.491558  -0.006073   x
            x  O           23         0.354093   0.991555   0.506065   x
            x  O           24         0.854095   0.491558   0.506073   x
            x  Na           1         0.000000   0.300863   0.250000   x
            x  Na           2         0.500000   0.800866   0.250000   x
            x  Na           3         0.000000   0.699137   0.750000   x
            x  Na           4         0.500000   0.199134   0.750000   x
            x  Al           1         0.000000   0.905868   0.250000   x
            x  Al           2         0.500000   0.405869   0.250000   x
            x  Al           3         0.000000   0.094132   0.750000   x
            x  Al           4         0.500000   0.594131   0.750000   x
            x  Si           1         0.291029   0.093857   0.227858   x
            x  Si           2         0.791030   0.593856   0.227862   x
            x  Si           3         0.708971   0.093857   0.272142   x
            x  Si           4         0.208970   0.593856   0.272138   x
            x  Si           5         0.708971   0.906143   0.772142   x
            x  Si           6         0.208970   0.406144   0.772138   x
            x  Si           7         0.291029   0.906143   0.727858   x
            x  Si           8         0.791030   0.406144   0.727862   x
            xxxxxxxxxxxxxxxxxxxxxxxxxxxxxxxxxxxxxxxxxxxxxxxxxxxxxxxxxxxx
 
 
------------------------------------------------------------------------ <-- SCF
SCF loop      Energy                           Energy gain       Timer   <-- SCF
                                               per atom          (sec)   <-- SCF
------------------------------------------------------------------------ <-- SCF
Initial  -1.68460911E+004                                        382.21  <-- SCF
      1  -1.68461027E+004                    2.90332550E-004     394.58  <-- SCF
      2  -1.68461027E+004                    1.39186338E-007     406.94  <-- SCF
      3  -1.68461027E+004                    9.07732616E-010     419.00  <-- SCF
      4  -1.68461027E+004                    1.89481546E-011     432.28  <-- SCF
------------------------------------------------------------------------ <-- SCF
 
Final energy =  -16846.10267647     eV
(energy not corrected for finite basis set)
 
 
 *********************************** Forces ***********************************
 *                                                                            *
 *                        Cartesian components (eV/A)                         *
 * -------------------------------------------------------------------------- *
 *                   x                    y                    z              *
 *                                                                            *
 * O         1     -0.00495             -0.00564              0.00589         *
 * O         2     -0.00497             -0.00561              0.00590         *
 * O         3      0.00495             -0.00564             -0.00589         *
 * O         4      0.00497             -0.00561             -0.00590         *
 * O         5      0.00495              0.00564             -0.00589         *
 * O         6      0.00497              0.00561             -0.00590         *
 * O         7     -0.00495              0.00564              0.00589         *
 * O         8     -0.00497              0.00561              0.00590         *
 * O         9     -0.00669             -0.01676              0.00815         *
 * O        10     -0.00678             -0.01691              0.00818         *
 * O        11      0.00669             -0.01676             -0.00815         *
 * O        12      0.00678             -0.01691             -0.00818         *
 * O        13      0.00669              0.01676             -0.00815         *
 * O        14      0.00678              0.01691             -0.00818         *
 * O        15     -0.00669              0.01676              0.00815         *
 * O        16     -0.00678              0.01691              0.00818         *
 * O        17      0.00842             -0.02723             -0.00292         *
 * O        18      0.00828             -0.02722             -0.00297         *
 * O        19     -0.00842             -0.02723              0.00292         *
 * O        20     -0.00828             -0.02722              0.00297         *
 * O        21     -0.00842              0.02723              0.00292         *
 * O        22     -0.00828              0.02722              0.00297         *
 * O        23      0.00842              0.02723             -0.00292         *
 * O        24      0.00828              0.02722             -0.00297         *
 * Na        1      0.00000             -0.01768              0.00000         *
 * Na        2      0.00000             -0.01773              0.00000         *
 * Na        3      0.00000              0.01768              0.00000         *
 * Na        4      0.00000              0.01773              0.00000         *
 * Al        1      0.00000              0.02474              0.00000         *
 * Al        2      0.00000              0.02465              0.00000         *
 * Al        3      0.00000             -0.02474              0.00000         *
 * Al        4      0.00000             -0.02465              0.00000         *
 * Si        1      0.00175             -0.00421              0.01358         *
 * Si        2      0.00187             -0.00412              0.01356         *
 * Si        3     -0.00175             -0.00421             -0.01358         *
 * Si        4     -0.00187             -0.00412             -0.01356         *
 * Si        5     -0.00175              0.00421             -0.01358         *
 * Si        6     -0.00187              0.00412             -0.01356         *
 * Si        7      0.00175              0.00421              0.01358         *
 * Si        8      0.00187              0.00412              0.01356         *
 *                                                                            *
 ******************************************************************************
  
 +------------+-------------+-------------+-----------------+ <-- min BFGS
 |    Step    |   lambda    |   F.delta   |    enthalpy     | <-- min BFGS
 +------------+-------------+-------------+-----------------+ <-- min BFGS
 |  previous  |    0.000000 |    0.000006 |   -16835.331339 | <-- min BFGS
 | trial step |    1.000000 |    0.000005 |   -16835.331486 | <-- min BFGS
 |  line step |    4.589751 |    0.000000 |   -16835.331718 | <-- min BFGS
 +------------+-------------+-------------+-----------------+ <-- min BFGS
  
 BFGS: finished iteration     3 with enthalpy= -1.68353317E+004 eV
  
 +-----------+-----------------+-----------------+------------+-----+ <-- BFGS
 | Parameter |      value      |    tolerance    |    units   | OK? | <-- BFGS
 +-----------+-----------------+-----------------+------------+-----+ <-- BFGS
 |  dE/ion   |   9.476245E-006 |   2.000000E-007 |         eV | No  | <-- BFGS
 |  |F|max   |   2.864941E-002 |   1.000000E-003 |       eV/A | No  | <-- BFGS
 |  |dR|max  |   1.299252E-003 |   1.000000E-003 |          A | No  | <-- BFGS
 +-----------+-----------------+-----------------+------------+-----+ <-- BFGS
  

================================================================================
 Starting BFGS iteration          4 ...
================================================================================
 
Writing model to jadeite_4_30_GPa_cij__4__6.check
  
 +------------+-------------+-------------+-----------------+ <-- min BFGS
 |    Step    |   lambda    |   F.delta   |    enthalpy     | <-- min BFGS
 +------------+-------------+-------------+-----------------+ <-- min BFGS
[...]
            x  O           20         0.145746   0.507289   0.491929   x
            x  O           21         0.645747   0.992711  -0.008072   x
            x  O           22         0.145746   0.492711  -0.008071   x
            x  O           23         0.354253   0.992711   0.508072   x
            x  O           24         0.854254   0.492711   0.508071   x
            x  Na           1         0.000000   0.299934   0.250000   x
            x  Na           2         0.500000   0.799934   0.250000   x
            x  Na           3         0.000000   0.700066   0.750000   x
            x  Na           4         0.500000   0.200066   0.750000   x
            x  Al           1         0.000000   0.906107   0.250000   x
            x  Al           2         0.500000   0.406107   0.250000   x
            x  Al           3         0.000000   0.093893   0.750000   x
            x  Al           4         0.500000   0.593893   0.750000   x
            x  Si           1         0.291100   0.093789   0.228727   x
            x  Si           2         0.791100   0.593789   0.228728   x
            x  Si           3         0.708900   0.093789   0.271273   x
            x  Si           4         0.208900   0.593789   0.271272   x
            x  Si           5         0.708900   0.906211   0.771273   x
            x  Si           6         0.208900   0.406211   0.771272   x
            x  Si           7         0.291100   0.906211   0.728727   x
            x  Si           8         0.791100   0.406211   0.728728   x
            xxxxxxxxxxxxxxxxxxxxxxxxxxxxxxxxxxxxxxxxxxxxxxxxxxxxxxxxxxxx
 
 
 BFGS: Final Enthalpy     = -1.68353333E+004 eV
 BFGS: Final <frequency>  =     986.43215 cm-1
 
 ***************************** Symmetrised Forces *****************************
 *                                                                            *
 *                        Cartesian components (eV/A)                         *
 * -------------------------------------------------------------------------- *
 *                   x                    y                    z              *
 *                                                                            *
 * O         1     -0.00014              0.00005              0.00027         *
 * O         2      0.00000              0.00007              0.00026         *
 * O         3      0.00014              0.00005             -0.00027         *
 * O         4      0.00000              0.00007             -0.00026         *
 * O         5      0.00014             -0.00005             -0.00027         *
 * O         6      0.00000             -0.00007             -0.00026         *
 * O         7     -0.00014             -0.00005              0.00027         *
 * O         8      0.00000             -0.00007              0.00026         *
 * O         9      0.00009             -0.00001             -0.00023         *
 * O        10      0.00007             -0.00012             -0.00024         *
 * O        11     -0.00009             -0.00001              0.00023         *
 * O        12     -0.00007             -0.00012              0.00024         *
 * O        13     -0.00009              0.00001              0.00023         *
 * O        14     -0.00007              0.00012              0.00024         *
 * O        15      0.00009              0.00001             -0.00023         *
 * O        16      0.00007              0.00012             -0.00024         *
 * O        17     -0.00013             -0.00002             -0.00023         *
 * O        18     -0.00011              0.00013              0.00000         *
 * O        19      0.00013             -0.00002              0.00023         *
 * O        20      0.00011              0.00013              0.00000         *
 * O        21      0.00013              0.00002              0.00023         *
 * O        22      0.00011             -0.00013              0.00000         *
 * O        23     -0.00013              0.00002             -0.00023         *
 * O        24     -0.00011             -0.00013              0.00000         *
 * Na        1      0.00000             -0.00029              0.00000         *
 * Na        2      0.00000             -0.00027              0.00000         *
 * Na        3      0.00000              0.00029              0.00000         *
 * Na        4      0.00000              0.00027              0.00000         *
 * Al        1      0.00000              0.00002              0.00000         *
 * Al        2      0.00000             -0.00001              0.00000         *
 * Al        3      0.00000             -0.00002              0.00000         *
 * Al        4      0.00000              0.00001              0.00000         *
 * Si        1      0.00001             -0.00009              0.00003         *
 * Si        2     -0.00014              0.00007             -0.00017         *
 * Si        3     -0.00001             -0.00009             -0.00003         *
 * Si        4      0.00014              0.00007              0.00017         *
 * Si        5     -0.00001              0.00009             -0.00003         *
 * Si        6      0.00014             -0.00007              0.00017         *
 * Si        7      0.00001              0.00009              0.00003         *
 * Si        8     -0.00014             -0.00007             -0.00017         *
 *                                                                            *
 ******************************************************************************
 
 *********** Symmetrised Stress Tensor ***********
 *                                               *
 *          Cartesian components (GPa)           *
 * --------------------------------------------- *
 *             x             y             z     *
 *                                               *
 *  x     -4.138760      0.000000     -0.765628  *
 *  y      0.000000     -4.215962      0.000000  *
 *  z     -0.765628      0.000000     -4.401331  *
 *                                               *
 *  Pressure:    4.2520                          *
 *                                               *
 *************************************************
 
 Pseudo atomic calculation performed for O 2s2 2p4
 
 Converged in 36 iterations to a total energy of -429.6485 eV
 
 
 Pseudo atomic calculation performed for Na 2s2 2p6 3s1
 
 Converged in 33 iterations to a total energy of -1302.8467 eV
 
 
 Pseudo atomic calculation performed for Al 3s2 3p1
 
 Converged in 20 iterations to a total energy of -52.7392 eV
 
 
 Pseudo atomic calculation performed for Si 3s2 3p2
 
 Converged in 21 iterations to a total energy of -101.9044 eV
 
Charge spilling parameter for spin component 1 = 0.85%
 
     Atomic Populations (Mulliken)
     -----------------------------
Species   Ion     s      p      d      f     Total  Charge (e)
==============================================================
  O        1     1.85   5.24   0.00   0.00   7.08    -1.08
  O        2     1.85   5.24   0.00   0.00   7.08    -1.08
  O        3     1.85   5.24   0.00   0.00   7.08    -1.08
  O        4     1.85   5.24   0.00   0.00   7.08    -1.08
  O        5     1.85   5.24   0.00   0.00   7.08    -1.08
  O        6     1.85   5.24   0.00   0.00   7.08    -1.08
  O        7     1.85   5.24   0.00   0.00   7.08    -1.08
  O        8     1.85   5.24   0.00   0.00   7.08    -1.08
  O        9     1.84   5.29   0.00   0.00   7.12    -1.12
  O       10     1.84   5.29   0.00   0.00   7.12    -1.12
  O       11     1.84   5.29   0.00   0.00   7.12    -1.12
  O       12     1.84   5.29   0.00   0.00   7.12    -1.12
  O       13     1.84   5.29   0.00   0.00   7.12    -1.12
  O       14     1.84   5.29   0.00   0.00   7.12    -1.12
  O       15     1.84   5.29   0.00   0.00   7.12    -1.12
  O       16     1.84   5.29   0.00   0.00   7.12    -1.12
  O       17     1.83   5.30   0.00   0.00   7.12    -1.12
  O       18     1.83   5.30   0.00   0.00   7.12    -1.12
  O       19     1.83   5.30   0.00   0.00   7.12    -1.12
  O       20     1.83   5.30   0.00   0.00   7.12    -1.12
  O       21     1.83   5.30   0.00   0.00   7.12    -1.12
  O       22     1.83   5.30   0.00   0.00   7.12    -1.12
  O       23     1.83   5.30   0.00   0.00   7.12    -1.12
  O       24     1.83   5.30   0.00   0.00   7.12    -1.12
  Na       1     2.04   5.77   0.00   0.00   7.81     1.19
  Na       2     2.04   5.77   0.00   0.00   7.81     1.19
  Na       3     2.04   5.77   0.00   0.00   7.81     1.19
  Na       4     2.04   5.77   0.00   0.00   7.81     1.19
  Al       1     0.51   0.92   0.00   0.00   1.43     1.57
  Al       2     0.51   0.92   0.00   0.00   1.43     1.57
  Al       3     0.51   0.92   0.00   0.00   1.43     1.57
  Al       4     0.51   0.92   0.00   0.00   1.43     1.57
  Si       1     0.69   1.36   0.00   0.00   2.05     1.95
  Si       2     0.69   1.36   0.00   0.00   2.05     1.95
  Si       3     0.69   1.36   0.00   0.00   2.05     1.95
  Si       4     0.69   1.36   0.00   0.00   2.05     1.95
  Si       5     0.69   1.36   0.00   0.00   2.05     1.95
  Si       6     0.69   1.36   0.00   0.00   2.05     1.95
  Si       7     0.69   1.36   0.00   0.00   2.05     1.95
  Si       8     0.69   1.36   0.00   0.00   2.05     1.95
==============================================================
 
     Bond                     Population      Length (A)
============================================================
   O 015 --   Si 007               0.76        1.59258
   O 013 --   Si 005               0.76        1.59258
   O 009 --   Si 001               0.76        1.59258
   O 011 --   Si 003               0.76        1.59258
   O 010 --   Si 002               0.76        1.59258
   O 012 --   Si 004               0.76        1.59258
   O 016 --   Si 008               0.76        1.59258
   O 014 --   Si 006               0.76        1.59258
   O 023 --   Si 007               0.56        1.63003
   O 019 --   Si 003               0.56        1.63003
   O 021 --   Si 005               0.56        1.63003
   O 017 --   Si 001               0.56        1.63003
   O 024 --   Si 008               0.56        1.63004
   O 018 --   Si 002               0.56        1.63004
   O 020 --   Si 004               0.56        1.63004
   O 022 --   Si 006               0.56        1.63004
   O 003 --   Si 003               0.59        1.63745
   O 005 --   Si 005               0.59        1.63745
   O 001 --   Si 001               0.59        1.63745
   O 007 --   Si 007               0.59        1.63745
   O 008 --   Si 008               0.59        1.63746
   O 002 --   Si 002               0.59        1.63746
   O 006 --   Si 006               0.59        1.63746
   O 004 --   Si 004               0.59        1.63746
   O 020 --   Si 006               0.58        1.64054
   O 018 --   Si 008               0.58        1.64054
   O 022 --   Si 004               0.58        1.64054
   O 024 --   Si 002               0.58        1.64054
   O 021 --   Si 003               0.58        1.64054
   O 019 --   Si 005               0.58        1.64054
   O 017 --   Si 007               0.58        1.64054
   O 023 --   Si 001               0.58        1.64054
   O 014 --   Al 003               0.42        1.85592
   O 012 --   Al 001               0.42        1.85592
   O 016 --   Al 003               0.42        1.85592
   O 010 --   Al 001               0.42        1.85592
   O 011 --   Al 002               0.42        1.85592
   O 013 --   Al 004               0.42        1.85592
   O 009 --   Al 002               0.42        1.85592
   O 015 --   Al 004               0.42        1.85592
   O 006 --   Al 002               0.33        1.93435
   O 004 --   Al 004               0.33        1.93435
   O 002 --   Al 004               0.33        1.93435
   O 008 --   Al 002               0.33        1.93435
   O 001 --   Al 003               0.33        1.93435
   O 007 --   Al 001               0.33        1.93435
   O 005 --   Al 001               0.33        1.93435
   O 003 --   Al 003               0.33        1.93435
   O 004 --   Al 002               0.31        2.00243
   O 002 --   Al 002               0.31        2.00243
   O 008 --   Al 004               0.31        2.00243
   O 006 --   Al 004               0.31        2.00243
   O 007 --   Al 003               0.31        2.00243
   O 005 --   Al 003               0.31        2.00243
   O 001 --   Al 001               0.31        2.00243
   O 003 --   Al 001               0.31        2.00243
   O 001 --   Na 001              -0.01        2.34819
   O 003 --   Na 001              -0.01        2.34819
   O 007 --   Na 003              -0.01        2.34819
   O 005 --   Na 003              -0.01        2.34819
   O 008 --   Na 004              -0.01        2.34819
   O 006 --   Na 004              -0.01        2.34819
   O 004 --   Na 002              -0.01        2.34819
   O 002 --   Na 002              -0.01        2.34819
   O 020 --   Na 001              -0.04        2.35861
   O 024 --   Na 003              -0.04        2.35861
   O 022 --   Na 003              -0.04        2.35861
   O 018 --   Na 001              -0.04        2.35861
   O 023 --   Na 004              -0.04        2.35861
   O 021 --   Na 004              -0.04        2.35861
   O 019 --   Na 002              -0.04        2.35861
   O 017 --   Na 002              -0.04        2.35861
   O 013 --   Na 002              -0.05        2.39471
   O 015 --   Na 002              -0.05        2.39471
   O 011 --   Na 004              -0.05        2.39471
   O 009 --   Na 004              -0.05        2.39471
   O 012 --   Na 003              -0.05        2.39471
   O 016 --   Na 001              -0.05        2.39471
   O 014 --   Na 001              -0.05        2.39471
   O 010 --   Na 003              -0.05        2.39471
   O 004 --    O 008              -0.10        2.47121
   O 002 --    O 006              -0.10        2.47121
   O 003 --    O 007              -0.10        2.47121
   O 001 --    O 005              -0.10        2.47121
   O 012 --    O 022              -0.10        2.58457
   O 010 --    O 024              -0.10        2.58457
   O 016 --    O 018              -0.10        2.58457
   O 014 --    O 020              -0.10        2.58457
   O 015 --    O 017              -0.10        2.58458
   O 013 --    O 019              -0.10        2.58458
   O 011 --    O 021              -0.10        2.58458
   O 009 --    O 023              -0.10        2.58458
   O 020 --    O 022              -0.17        2.61294
   O 018 --    O 024              -0.17        2.61294
   O 017 --    O 023              -0.17        2.61294
   O 019 --    O 021              -0.17        2.61294
   O 005 --    O 019              -0.08        2.63442
   O 003 --    O 021              -0.08        2.63442
   O 007 --    O 017              -0.08        2.63442
   O 001 --    O 023              -0.08        2.63442
   O 008 --    O 018              -0.08        2.63442
   O 002 --    O 024              -0.08        2.63442
   O 004 --    O 022              -0.08        2.63442
   O 006 --    O 020              -0.08        2.63442
   O 015 --    O 023              -0.09        2.64690
   O 013 --    O 021              -0.09        2.64690
   O 011 --    O 019              -0.09        2.64690
   O 009 --    O 017              -0.09        2.64690
   O 012 --    O 020              -0.09        2.64691
   O 010 --    O 018              -0.09        2.64691
   O 016 --    O 024              -0.09        2.64691
   O 014 --    O 022              -0.09        2.64691
   O 005 --    O 021              -0.08        2.64770
   O 003 --    O 019              -0.08        2.64770
   O 007 --    O 023              -0.08        2.64770
   O 001 --    O 017              -0.08        2.64770
   O 002 --    O 018              -0.08        2.64770
   O 008 --    O 024              -0.08        2.64770
   O 004 --    O 020              -0.08        2.64770
   O 006 --    O 022              -0.08        2.64770
   O 003 --    O 016              -0.08        2.68517
   O 001 --    O 014              -0.08        2.68517
   O 005 --    O 010              -0.08        2.68517
   O 007 --    O 012              -0.08        2.68517
   O 006 --    O 009              -0.08        2.68517
   O 008 --    O 011              -0.08        2.68517
   O 002 --    O 013              -0.08        2.68517
   O 004 --    O 015              -0.08        2.68517
   O 004 --    O 009              -0.05        2.71071
   O 002 --    O 011              -0.05        2.71071
   O 008 --    O 013              -0.05        2.71071
   O 006 --    O 015              -0.05        2.71071
   O 007 --    O 014              -0.05        2.71071
   O 005 --    O 016              -0.05        2.71071
   O 003 --    O 010              -0.05        2.71071
   O 001 --    O 012              -0.05        2.71071
   O 006 --    O 008              -0.05        2.73545
   O 002 --    O 004              -0.05        2.73545
   O 001 --    O 003              -0.05        2.73546
   O 005 --    O 007              -0.05        2.73546
   O 022 --   Na 001              -0.02        2.75389
   O 020 --   Na 003              -0.02        2.75389
   O 018 --   Na 003              -0.02        2.75389
   O 024 --   Na 001              -0.02        2.75389
   O 017 --   Na 004              -0.02        2.75389
   O 023 --   Na 002              -0.02        2.75389
   O 021 --   Na 002              -0.02        2.75389
   O 019 --   Na 004              -0.02        2.75389
   O 007 --    O 015              -0.06        2.77275
   O 005 --    O 013              -0.06        2.77275
   O 003 --    O 011              -0.06        2.77275
   O 001 --    O 009              -0.06        2.77275
   O 008 --    O 016              -0.06        2.77275
   O 002 --    O 010              -0.06        2.77275
   O 006 --    O 014              -0.06        2.77275
   O 004 --    O 012              -0.06        2.77275
   O 020 --    O 024              -0.04        2.78378
   O 018 --    O 022              -0.04        2.78378
   O 017 --    O 021              -0.04        2.78379
   O 019 --    O 023              -0.04        2.78379
   O 009 --    O 011              -0.05        2.80173
   O 013 --    O 015              -0.05        2.80173
   O 014 --    O 016              -0.05        2.80173
   O 010 --    O 012              -0.05        2.80173
   O 001 --    O 016              -0.04        2.80501
   O 003 --    O 014              -0.04        2.80501
   O 005 --    O 012              -0.04        2.80501
   O 007 --    O 010              -0.04        2.80501
   O 006 --    O 011              -0.04        2.80501
   O 004 --    O 013              -0.04        2.80501
   O 008 --    O 009              -0.04        2.80501
   O 002 --    O 015              -0.04        2.80501
   O 016 --    O 019              -0.02        2.91250
   O 014 --    O 017              -0.02        2.91250
   O 010 --    O 021              -0.02        2.91250
   O 012 --    O 023              -0.02        2.91250
   O 009 --    O 022              -0.02        2.91251
   O 011 --    O 024              -0.02        2.91251
   O 013 --    O 018              -0.02        2.91251
   O 015 --    O 020              -0.02        2.91251
   O 002 --    O 008              -0.06        2.92368
   O 004 --    O 006              -0.06        2.92368
   O 003 --    O 005              -0.06        2.92368
   O 001 --    O 007              -0.06        2.92368
============================================================
 
 
Writing model to jadeite_4_30_GPa_cij__4__6.check
 
Writing analysis data to jadeite_4_30_GPa_cij__4__6.castep_bin
Initialisation time =      1.95 s
Calculation time    =   1777.77 s
Finalisation time   =      0.77 s
Total time          =   1780.49 s
Peak Memory Use     = 221804 kB
