 +-------------------------------------------------+
 |                                                 |
 |      CCC   AA    SSS  TTTTT  EEEEE  PPPP        |
 |     C     A  A  S       T    E      P   P       |
 |     C     AAAA   SS     T    EEE    PPPP        |
 |     C     A  A     S    T    E      P           |
 |      CCC  A  A  SSS     T    EEEEE  P           |
 |                                                 |
 +-------------------------------------------------+
 |                                                 |
 | Welcome to Academic Release CASTEP version 5.02 |
 | Ab Initio Total Energy Program                  |
 |                                                 |
 | Authors:                                        |
 | M. Segall, M. Probert, C. Pickard, P. Hasnip,   |
 | S. Clark, K. Refson, M. Payne                   |
 |                                                 |
 | Contributors:                                   |
 | P. Lindan, P. Haynes, J. White, V. Milman,      |
 | N. Govind, M. Gibson, P. Tulip, V. Cocula,      |
 | B. Montanari, D. Quigley, M. Glover,            |
 | L. Bernasconi, A. Perlov, M. Plummer            |
 |                                                 |
 | Copyright (c) 2000 - 2009                       |
 |                                                 |
 |     Distributed under the terms of an           |
 |     Agreement between the United Kingdom        |
 |     Car-Parrinello (UKCP) Consortium,           |
 |     Daresbury Laboratory and Accelrys, Inc.     |
 |                                                 |
 | Please cite                                     |
 |                                                 |
 |     "First principles methods using CASTEP"     |
 |                                                 |
 |         Zeitschrift fuer Kristallographie       |
 |           220(5-6) pp. 567-570 (2005)           |
 |                                                 |
 | S. J. Clark, M. D. Segall, C. J. Pickard,       |
 | P. J. Hasnip, M. J. Probert, K. Refson,         |
 | M. C. Payne                                     |
 |                                                 |
 |       in all publications arising from          |
 |              your use of CASTEP                 |
 |                                                 |
 +-------------------------------------------------+
 
 
 Pseudo atomic calculation performed for O 2s2 2p4
 
 Converged in 36 iterations to a total energy of -429.6485 eV
 
 
 Pseudo atomic calculation performed for Na 2s2 2p6 3s1
 
 Converged in 33 iterations to a total energy of -1302.8467 eV
 
 
 Pseudo atomic calculation performed for Al 3s2 3p1
 
 Converged in 20 iterations to a total energy of -52.7392 eV
 
 
 Pseudo atomic calculation performed for Si 3s2 3p2
 
 Converged in 21 iterations to a total energy of -101.9044 eV
 
Calculation parallelised over   36 nodes.
K-points are distributed over    6 groups, each containing    6 nodes.

 ************************************ Title ************************************
 

 ***************************** General Parameters ******************************
  
 output verbosity                               : normal  (1)
 write checkpoint data to                       : jadeite_4_30_GPa_cij__2__2.check
 type of calculation                            : geometry optimization
 stress calculation                             : on
 density difference calculation                 : off
 electron localisation func (ELF) calculation   : off
 Hirshfeld analysis                             : off
 unlimited duration calculation
 timing information                             : on
 memory usage estimate                          : on
 write final potential to formatted file        : off
 write final density to formatted file          : off
  
 output         length unit                     : A
 output           mass unit                     : amu
 output           time unit                     : ps
 output         charge unit                     : e
 output         energy unit                     : eV
 output          force unit                     : eV/A
 output       velocity unit                     : A/ps
 output       pressure unit                     : GPa
 output     inv_length unit                     : 1/A
 output      frequency unit                     : cm-1
 output force constant unit                     : eV/A**2
 output         volume unit                     : A**3
 output   IR intensity unit                     : (D/A)**2/amu
 output         dipole unit                     : D
 output         efield unit                     : eV/A/e
  
 wavefunctions paging                           : none
 data distribution                              : optimal for this architecture
 optimization strategy                          : maximize speed(+++)

 *********************** Exchange-Correlation Parameters ***********************
  
 using functional                               : Perdew Burke Ernzerhof
 Divergence correction                          : off
 DFT+D: Semi-empirical dispersion correction    : off

 ************************* Pseudopotential Parameters **************************
  
 pseudopotential representation                 : reciprocal space
 <beta|phi> representation                      : reciprocal space

 **************************** Basis Set Parameters *****************************
  
 plane wave basis set cut-off                   :   700.0000   eV
 finite basis set correction                    : none

 **************************** Electronic Parameters ****************************
  
 number of  electrons                           :  224.0    
 net charge of system                           :  0.000    
 net spin   of system                           :  0.000    
 number of  up  spins                           :  112.0    
 number of down spins                           :  112.0    
 treating system as non-spin-polarized
 number of bands                                :        112

 ********************* Electronic Minimization Parameters **********************
  
 Method: Treating system as non-metallic,
         and number of  SD  steps               :          1
         and number of  CG  steps               :          4
  
 total energy / atom convergence tol.           : 0.1000E-07   eV
 max force / atom convergence tol.              : ignored
 convergence tolerance window                   :          3   cycles
 max. number of SCF cycles                      :        100

 *********************** Population Analysis Parameters ************************
  
 Population analysis with cutoff                :  3.000       A

 ********************** Geometry Optimization Parameters ***********************
  
 optimization method                            : BFGS
 variable cell method                           : fixed basis quality
 max. number of steps                           :        300
 estimated bulk modulus                         :  500.0       GPa
 estimated <frequency>                          :  1668.       cm-1
 line minimiser tolerance                       :     0.4000
 total energy convergence tolerance             : 0.2000E-06   eV/atom
        max ionic |force| tolerance             : 0.1000E-02   eV/A
 max ionic |displacement| tolerance             : 0.1000E-02   A
   max |stress component| tolerance             : 0.1000E-02   GPa
 convergence tolerance window                   :          2   steps
 backup results every                           :          1   steps

 *******************************************************************************
  
 
                           -------------------------------
                                      Unit Cell
                           -------------------------------
        Real Lattice(A)                      Reciprocal Lattice(1/A)
   8.9813393  -0.0333333  -2.8290832        0.6995822   0.0000000   0.0000000
   0.0000000   8.5603493   0.0000000        0.0027241   0.7339870   0.0000000
   0.0000000   0.0000000   5.1865846        0.3815953   0.0000000   1.2114302
 
                       Lattice parameters(A)       Cell Angles
                    a =    9.416437          alpha =   90.000000
                    b =    8.560349          beta  =  107.484090
                    c =    5.186585          gamma =   90.202822
 
                       Current cell volume =  398.762263       A**3
 
                           -------------------------------
                                     Cell Contents
                           -------------------------------
                         Total number of ions in cell =   40
                      Total number of species in cell =    4
                        Max number of any one species =   24
 
            xxxxxxxxxxxxxxxxxxxxxxxxxxxxxxxxxxxxxxxxxxxxxxxxxxxxxxxxxxxx
            x  Element    Atom        Fractional coordinates of atoms  x
            x            Number           u          v          w      x
            x----------------------------------------------------------x
            x  O            1         0.109277   0.076953   0.129205   x
            x  O            2         0.609279   0.576951   0.129208   x
            x  O            3         0.890723   0.076953   0.370795   x
            x  O            4         0.390721   0.576951   0.370792   x
            x  O            5         0.890723   0.923047   0.870795   x
            x  O            6         0.390721   0.423048   0.870792   x
            x  O            7         0.109277   0.923047   0.629205   x
            x  O            8         0.609279   0.423048   0.629208   x
            x  O            9         0.361047   0.263746   0.295383   x
            x  O           10         0.861046   0.763747   0.295382   x
            x  O           11         0.638953   0.263746   0.204617   x
            x  O           12         0.138954   0.763747   0.204618   x
            x  O           13         0.638953   0.736253   0.704617   x
            x  O           14         0.138954   0.236253   0.704618   x
            x  O           15         0.361047   0.736253   0.795383   x
            x  O           16         0.861046   0.236253   0.795382   x
            x  O           17         0.354029   0.008469   1.005059   x
            x  O           18         0.854032   0.508466   1.005069   x
            x  O           19         0.645971   0.008469   0.494941   x
            x  O           20         0.145968   0.508466   0.494931   x
            x  O           21         0.645971   0.991530  -0.005059   x
            x  O           22         0.145968   0.491534  -0.005069   x
            x  O           23         0.354029   0.991530   0.505059   x
            x  O           24         0.854032   0.491534   0.505069   x
            x  Na           1         0.000000   0.301230   0.250000   x
            x  Na           2         0.500000   0.801234   0.250000   x
            x  Na           3         0.000000   0.698770   0.750000   x
            x  Na           4         0.500000   0.198765   0.750000   x
            x  Al           1         0.000000   0.906276   0.250000   x
            x  Al           2         0.500000   0.406276   0.250000   x
            x  Al           3         0.000000   0.093723   0.750000   x
            x  Al           4         0.500000   0.593723   0.750000   x
            x  Si           1         0.290869   0.093824   0.228100   x
            x  Si           2         0.790871   0.593823   0.228106   x
            x  Si           3         0.709131   0.093824   0.271900   x
            x  Si           4         0.209129   0.593823   0.271894   x
            x  Si           5         0.709131   0.906175   0.771900   x
            x  Si           6         0.209129   0.406176   0.771894   x
            x  Si           7         0.290869   0.906175   0.728100   x
            x  Si           8         0.790871   0.406176   0.728106   x
            xxxxxxxxxxxxxxxxxxxxxxxxxxxxxxxxxxxxxxxxxxxxxxxxxxxxxxxxxxxx
 
 
                         No user defined ionic velocities
 
                           -------------------------------
                                   Details of Species
                           -------------------------------
 
                               Mass of species in AMU
                                    O   15.9994000
                                    Na   22.9897700
                                    Al   26.9815400
                                    Si   28.0855000
 
                          Electric Quadrupole Moment (Barn)
                                    O   -0.0255800 Isotope 17
                                    Na    0.1040000 Isotope 23
                                    Al    0.1466000 Isotope 27
                                    Si    1.0000000 No Isotope Defined
 
                          Files used for pseudopotentials:
                                    O O_00PBE.usp
                                    Na Na_00PBE.usp
                                    Al Al_00PBE.usp
                                    Si Si_00PBE.usp
 
                           -------------------------------
                              k-Points For BZ Sampling
                           -------------------------------
                       MP grid size for SCF calculation is  2  2  3
                         Number of kpoints used = 6
 
             +++++++++++++++++++++++++++++++++++++++++++++++++++++++
             +  Number       Fractional coordinates        Weight  +
             +-----------------------------------------------------+
             +     1  -0.250000   0.250000   0.333333   0.1666667  +
             +     2  -0.250000   0.250000   0.000000   0.1666667  +
             +     3   0.250000  -0.250000   0.333333   0.1666667  +
             +     4  -0.250000  -0.250000   0.333333   0.1666667  +
             +     5   0.250000   0.250000   0.000000   0.1666667  +
             +     6   0.250000   0.250000   0.333333   0.1666667  +
             +++++++++++++++++++++++++++++++++++++++++++++++++++++++
 
                           -------------------------------
                               Symmetry and Constraints
                           -------------------------------
 
                      Number of symmetry operations   = 2
                      Number of ionic constraints     = 3
                      Maximum deviation from symmetry = 0.146574E-14     ANG
               Point group of crystal =     2: Ci, -1, -1
           Set iprint > 1 for details on symmetry rotations/translations
 
                          Centre of mass is constrained
             Set iprint > 1 for details of linear ionic constraints
 
                         Number of cell constraints= 6
                         Cell constraints are:  0 0 0 0 0 0
 
                         External pressure/stress (GPa)
                          4.30000   0.00000   0.00000
                                    4.30000   0.00000
                                              4.30000
  
+---------------- MEMORY AND SCRATCH DISK ESTIMATES PER NODE -----------------+
|                                                     Memory          Disk    |
| Model and support data                               91.4 MB         0.0 MB |
| Electronic energy minimisation requirements          32.3 MB         0.0 MB |
|                                               ----------------------------- |
| Approx. total storage required per node             123.6 MB         0.0 MB |
|                                                                             |
| Requirements will fluctuate during execution and may exceed these estimates |
+-----------------------------------------------------------------------------+
------------------------------------------------------------------------ <-- SCF
SCF loop      Energy                           Energy gain       Timer   <-- SCF
                                               per atom          (sec)   <-- SCF
------------------------------------------------------------------------ <-- SCF
Initial  -1.69769357E+003                                          6.46  <-- SCF
      1  -1.65294677E+004                    3.70794353E+002      25.36  <-- SCF
      2  -1.68157137E+004                    7.15615004E+000      43.63  <-- SCF
      3  -1.68452356E+004                    7.38048919E-001      61.92  <-- SCF
      4  -1.68460175E+004                    1.95464428E-002      79.97  <-- SCF
      5  -1.68460232E+004                    1.43729284E-004      98.03  <-- SCF
      6  -1.68460234E+004                    3.36731770E-006     116.04  <-- SCF
      7  -1.68460234E+004                    9.95654374E-008     134.03  <-- SCF
      8  -1.68460234E+004                    3.11438057E-009     152.06  <-- SCF
      9  -1.68460234E+004                    9.84530647E-011     170.85  <-- SCF
------------------------------------------------------------------------ <-- SCF
 
Final energy =  -16846.02338218     eV
(energy not corrected for finite basis set)
 
 
Writing model to jadeite_4_30_GPa_cij__2__2.check
 
+---------------- MEMORY AND SCRATCH DISK ESTIMATES PER NODE -----------------+
|                                                     Memory          Disk    |
| Model and support data                               84.4 MB         0.0 MB |
| Geometry minimisation requirements                   37.5 MB         0.0 MB |
|                                               ----------------------------- |
| Approx. total storage required per node             122.0 MB         0.0 MB |
|                                                                             |
| Requirements will fluctuate during execution and may exceed these estimates |
+-----------------------------------------------------------------------------+
 
 
 *********************************** Forces ***********************************
 *                                                                            *
 *                        Cartesian components (eV/A)                         *
 * -------------------------------------------------------------------------- *
 *                   x                    y                    z              *
 *                                                                            *
 * O         1      0.02978              0.00188              0.03615         *
 * O         2      0.02962              0.00194              0.03611         *
 * O         3     -0.02057              0.00191             -0.02319         *
 * O         4     -0.02041              0.00197             -0.02315         *
 * O         5     -0.02978             -0.00188             -0.03615         *
 * O         6     -0.02962             -0.00194             -0.03611         *
 * O         7      0.02057             -0.00191              0.02319         *
 * O         8      0.02041             -0.00197              0.02315         *
 * O         9     -0.00360              0.04001              0.02986         *
 * O        10     -0.00348              0.04008              0.02987         *
 * O        11      0.03475             -0.04788             -0.01641         *
 * O        12      0.03463             -0.04780             -0.01641         *
 * O        13      0.00360             -0.04001             -0.02986         *
 * O        14      0.00348             -0.04008             -0.02987         *
 * O        15     -0.03475              0.04788              0.01641         *
 * O        16     -0.03463              0.04780              0.01641         *
 * O        17      0.09482              0.05240              0.03901         *
 * O        18      0.09477              0.05247              0.03899         *
 * O        19     -0.09122             -0.01461              0.04767         *
 * O        20     -0.09117             -0.01453              0.04770         *
 * O        21     -0.09482             -0.05240             -0.03901         *
 * O        22     -0.09477             -0.05247             -0.03899         *
 * O        23      0.09122              0.01461             -0.04767         *
 * O        24      0.09117              0.01453             -0.04770         *
 * Na        1     -0.00625              0.00257             -0.00833         *
 * Na        2     -0.00625              0.00245             -0.00833         *
 * Na        3      0.00625             -0.00257              0.00833         *
 * Na        4      0.00625             -0.00245              0.00833         *
 * Al        1      0.02384             -0.00992             -0.00112         *
 * Al        2      0.02384             -0.00982             -0.00112         *
 * Al        3     -0.02384              0.00992              0.00112         *
 * Al        4     -0.02384              0.00982              0.00112         *
 * Si        1     -0.09284              0.07139             -0.01129         *
 * Si        2     -0.09306              0.07142             -0.01132         *
 * Si        3      0.10308              0.23299              0.00230         *
 * Si        4      0.10330              0.23302              0.00233         *
 * Si        5      0.09284             -0.07139              0.01129         *
 * Si        6      0.09306             -0.07142              0.01132         *
 * Si        7     -0.10308             -0.23299             -0.00230         *
 * Si        8     -0.10330             -0.23302             -0.00233         *
 *                                                                            *
 ******************************************************************************
 BFGS: finished iteration     0 with enthalpy= -1.68353212E+004 eV
  
 +-----------+-----------------+-----------------+------------+-----+ <-- BFGS
 | Parameter |      value      |    tolerance    |    units   | OK? | <-- BFGS
 +-----------+-----------------+-----------------+------------+-----+ <-- BFGS
 |  dE/ion   |   0.000000E+000 |   2.000000E-007 |         eV | No  | <-- BFGS
 |  |F|max   |   2.549036E-001 |   1.000000E-003 |       eV/A | No  | <-- BFGS
 |  |dR|max  |   0.000000E+000 |   1.000000E-003 |          A | No  | <-- BFGS
 +-----------+-----------------+-----------------+------------+-----+ <-- BFGS
  

================================================================================
 Starting BFGS iteration          1 ...
================================================================================
 
Writing model to jadeite_4_30_GPa_cij__2__2.check
  
 +------------+-------------+-------------+-----------------+ <-- min BFGS
 |    Step    |   lambda    |   F.delta   |    enthalpy     | <-- min BFGS
 +------------+-------------+-------------+-----------------+ <-- min BFGS
 |  previous  |    0.000000 |    0.000080 |   -16835.321205 | <-- min BFGS
 +------------+-------------+-------------+-----------------+ <-- min BFGS
  

--------------------------------------------------------------------------------
 BFGS: starting iteration         1 with trial guess (lambda=  1.000000)
--------------------------------------------------------------------------------
 
                           -------------------------------
                                     Cell Contents
                           -------------------------------
 
            xxxxxxxxxxxxxxxxxxxxxxxxxxxxxxxxxxxxxxxxxxxxxxxxxxxxxxxxxxxx
            x  Element    Atom        Fractional coordinates of atoms  x
            x            Number           u          v          w      x
            x----------------------------------------------------------x
            x  O            1         0.109293   0.076954   0.129247   x
            x  O            2         0.609295   0.576953   0.129250   x
            x  O            3         0.890712   0.076954   0.370767   x
            x  O            4         0.390710   0.576953   0.370764   x
            x  O            5         0.890707   0.923046   0.870753   x
            x  O            6         0.390705   0.423047   0.870750   x
            x  O            7         0.109288   0.923046   0.629233   x
            x  O            8         0.609290   0.423047   0.629236   x
            x  O            9         0.361045   0.263769   0.295410   x
            x  O           10         0.861044   0.763770   0.295409   x
            x  O           11         0.638972   0.263720   0.204612   x
            x  O           12         0.138973   0.763720   0.204613   x
            x  O           13         0.638955   0.736231   0.704590   x
            x  O           14         0.138956   0.236230   0.704591   x
            x  O           15         0.361028   0.736280   0.795388   x
            x  O           16         0.861027   0.236280   0.795387   x
            x  O           17         0.354080   0.008499   1.005123   x
            x  O           18         0.854083   0.508496   1.005133   x
            x  O           19         0.645922   0.008461   0.494959   x
            x  O           20         0.145919   0.508458   0.494949   x
            x  O           21         0.645920   0.991501  -0.005123   x
            x  O           22         0.145917   0.491504  -0.005133   x
            x  O           23         0.354078   0.991539   0.505041   x
            x  O           24         0.854081   0.491542   0.505051   x
            x  Na           1        -0.000003   0.301231   0.249990   x
            x  Na           2         0.499997   0.801236   0.249990   x
            x  Na           3         0.000003   0.698769   0.750010   x
            x  Na           4         0.500003   0.198764   0.750010   x
            x  Al           1         0.000013   0.906271   0.250006   x
            x  Al           2         0.500013   0.406271   0.250006   x
            x  Al           3        -0.000013   0.093729   0.749994   x
            x  Al           4         0.499987   0.593729   0.749994   x
            x  Si           1         0.290819   0.093865   0.228062   x
            x  Si           2         0.790821   0.593864   0.228068   x
            x  Si           3         0.709187   0.093956   0.271932   x
            x  Si           4         0.209185   0.593955   0.271927   x
            x  Si           5         0.709181   0.906135   0.771938   x
            x  Si           6         0.209179   0.406136   0.771932   x
            x  Si           7         0.290813   0.906044   0.728068   x
            x  Si           8         0.790815   0.406045   0.728073   x
            xxxxxxxxxxxxxxxxxxxxxxxxxxxxxxxxxxxxxxxxxxxxxxxxxxxxxxxxxxxx
 
 
------------------------------------------------------------------------ <-- SCF
SCF loop      Energy                           Energy gain       Timer   <-- SCF
                                               per atom          (sec)   <-- SCF
------------------------------------------------------------------------ <-- SCF
Initial  -1.68460200E+004                                        181.84  <-- SCF
      1  -1.68460252E+004                    1.31342573E-004     200.07  <-- SCF
      2  -1.68460252E+004                    5.87821254E-008     218.24  <-- SCF
      3  -1.68460252E+004                    8.63030439E-010     236.41  <-- SCF
      4  -1.68460252E+004                    1.87161364E-011     255.35  <-- SCF
------------------------------------------------------------------------ <-- SCF
 
Final energy =  -16846.02524836     eV
(energy not corrected for finite basis set)
 
 
 *********************************** Forces ***********************************
 *                                                                            *
 *                        Cartesian components (eV/A)                         *
 * -------------------------------------------------------------------------- *
 *                   x                    y                    z              *
 *                                                                            *
 * O         1      0.00978              0.00008              0.03374         *
 * O         2      0.00962              0.00014              0.03369         *
 * O         3     -0.00707              0.00518             -0.02079         *
 * O         4     -0.00691              0.00524             -0.02075         *
 * O         5     -0.00978             -0.00008             -0.03374         *
 * O         6     -0.00962             -0.00014             -0.03369         *
 * O         7      0.00707             -0.00518              0.02079         *
 * O         8      0.00691             -0.00524              0.02075         *
 * O         9     -0.00286              0.04404              0.02742         *
 * O        10     -0.00276              0.04407              0.02743         *
 * O        11      0.02324             -0.01308             -0.01709         *
 * O        12      0.02314             -0.01305             -0.01709         *
 * O        13      0.00286             -0.04404             -0.02742         *
 * O        14      0.00276             -0.04407             -0.02743         *
 * O        15     -0.02324              0.01308              0.01709         *
 * O        16     -0.02314              0.01305              0.01709         *
 * O        17      0.07685              0.03740              0.01911         *
 * O        18      0.07678              0.03746              0.01908         *
 * O        19     -0.07210             -0.00267              0.02892         *
 * O        20     -0.07203             -0.00260              0.02895         *
 * O        21     -0.07685             -0.03740             -0.01911         *
 * O        22     -0.07678             -0.03746             -0.01908         *
 * O        23      0.07210              0.00267             -0.02892         *
 * O        24      0.07203              0.00260             -0.02895         *
 * Na        1     -0.00409              0.00813             -0.00758         *
 * Na        2     -0.00409              0.00802             -0.00758         *
 * Na        3      0.00409             -0.00813              0.00758         *
 * Na        4      0.00409             -0.00802              0.00758         *
 * Al        1      0.01953             -0.01097             -0.00071         *
 * Al        2      0.01953             -0.01088             -0.00071         *
 * Al        3     -0.01953              0.01097              0.00071         *
 * Al        4     -0.01953              0.01088              0.00071         *
 * Si        1     -0.06228              0.05864             -0.00846         *
 * Si        2     -0.06244              0.05870             -0.00848         *
 * Si        3      0.07472              0.15851              0.00456         *
 * Si        4      0.07489              0.15857              0.00458         *
 * Si        5      0.06228             -0.05864              0.00846         *
 * Si        6      0.06244             -0.05870              0.00848         *
 * Si        7     -0.07472             -0.15851             -0.00456         *
 * Si        8     -0.07489             -0.15857             -0.00458         *
 *                                                                            *
 ******************************************************************************
  
 +------------+-------------+-------------+-----------------+ <-- min BFGS
 |    Step    |   lambda    |   F.delta   |    enthalpy     | <-- min BFGS
 +------------+-------------+-------------+-----------------+ <-- min BFGS
 |  previous  |    0.000000 |    0.000080 |   -16835.321205 | <-- min BFGS
 | trial step |    1.000000 |    0.000057 |   -16835.323071 | <-- min BFGS
 +------------+-------------+-------------+-----------------+ <-- min BFGS
  

--------------------------------------------------------------------------------
 BFGS: improving iteration         1 with line minimization (lambda=  3.404304)
--------------------------------------------------------------------------------
 
                           -------------------------------
                                     Cell Contents
                           -------------------------------
 
            xxxxxxxxxxxxxxxxxxxxxxxxxxxxxxxxxxxxxxxxxxxxxxxxxxxxxxxxxxxx
            x  Element    Atom        Fractional coordinates of atoms  x
            x            Number           u          v          w      x
            x----------------------------------------------------------x
            x  O            1         0.109332   0.076957   0.129350   x
            x  O            2         0.609333   0.576955   0.129352   x
            x  O            3         0.890685   0.076957   0.370701   x
            x  O            4         0.390684   0.576955   0.370698   x
            x  O            5         0.890668   0.923043   0.870650   x
            x  O            6         0.390667   0.423045   0.870648   x
            x  O            7         0.109315   0.923043   0.629299   x
            x  O            8         0.609316   0.423045   0.629302   x
            x  O            9         0.361040   0.263823   0.295474   x
            x  O           10         0.861040   0.763824   0.295473   x
            x  O           11         0.639017   0.263655   0.204600   x
            x  O           12         0.139017   0.763655   0.204601   x
            x  O           13         0.638960   0.736177   0.704526   x
            x  O           14         0.138960   0.236176   0.704527   x
            x  O           15         0.360983   0.736345   0.795400   x
            x  O           16         0.860983   0.236345   0.795399   x
            x  O           17         0.354203   0.008571   1.005278   x
            x  O           18         0.854206   0.508568   1.005288   x
            x  O           19         0.645804   0.008441   0.495001   x
            x  O           20         0.145801   0.508437   0.494991   x
            x  O           21         0.645797   0.991429  -0.005278   x
            x  O           22         0.145794   0.491432  -0.005288   x
            x  O           23         0.354196   0.991559   0.504999   x
            x  O           24         0.854199   0.491563   0.505009   x
            x  Na           1        -0.000011   0.301235   0.249967   x
            x  Na           2         0.499989   0.801239   0.249967   x
            x  Na           3         0.000011   0.698765   0.750033   x
            x  Na           4         0.500011   0.198761   0.750033   x
            x  Al           1         0.000044   0.906258   0.250020   x
            x  Al           2         0.500044   0.406258   0.250020   x
            x  Al           3        -0.000044   0.093742   0.749980   x
            x  Al           4         0.499956   0.593742   0.749980   x
            x  Si           1         0.290699   0.093961   0.227971   x
            x  Si           2         0.790700   0.593960   0.227977   x
            x  Si           3         0.709320   0.094273   0.272010   x
            x  Si           4         0.209318   0.594272   0.272005   x
            x  Si           5         0.709301   0.906039   0.772029   x
            x  Si           6         0.209300   0.406040   0.772023   x
            x  Si           7         0.290680   0.905727   0.727990   x
            x  Si           8         0.790682   0.405728   0.727995   x
            xxxxxxxxxxxxxxxxxxxxxxxxxxxxxxxxxxxxxxxxxxxxxxxxxxxxxxxxxxxx
 
 
------------------------------------------------------------------------ <-- SCF
SCF loop      Energy                           Energy gain       Timer   <-- SCF
                                               per atom          (sec)   <-- SCF
------------------------------------------------------------------------ <-- SCF
Initial  -1.68460101E+004                                        263.50  <-- SCF
      1  -1.68460271E+004                    4.24258607E-004     281.70  <-- SCF
      2  -1.68460271E+004                    2.36936388E-007     299.81  <-- SCF
      3  -1.68460271E+004                    3.14392422E-009     319.35  <-- SCF
      4  -1.68460271E+004                    6.26449194E-011     337.42  <-- SCF
------------------------------------------------------------------------ <-- SCF
 
Final energy =  -16846.02710607     eV
(energy not corrected for finite basis set)
 
 
 *********************************** Forces ***********************************
 *                                                                            *
 *                        Cartesian components (eV/A)                         *
 * -------------------------------------------------------------------------- *
 *                   x                    y                    z              *
 *                                                                            *
 * O         1     -0.03848             -0.00428              0.02795         *
 * O         2     -0.03864             -0.00423              0.02791         *
 * O         3      0.02544              0.01299             -0.01505         *
 * O         4      0.02560              0.01304             -0.01501         *
 * O         5      0.03848              0.00428             -0.02795         *
 * O         6      0.03864              0.00423             -0.02791         *
 * O         7     -0.02544             -0.01299              0.01505         *
 * O         8     -0.02560             -0.01304              0.01501         *
 * O         9     -0.00107              0.05372              0.02156         *
 * O        10     -0.00104              0.05366              0.02157         *
 * O        11     -0.00492              0.07135             -0.01884         *
 * O        12     -0.00496              0.07130             -0.01885         *
 * O        13      0.00107             -0.05372             -0.02156         *
 * O        14      0.00104             -0.05366             -0.02157         *
 * O        15      0.00492             -0.07135              0.01884         *
 * O        16      0.00496             -0.07130              0.01885         *
 * O        17      0.03383              0.00174             -0.02800         *
 * O        18      0.03372              0.00179             -0.02805         *
 * O        19     -0.02626              0.02584             -0.01561         *
 * O        20     -0.02615              0.02589             -0.01556         *
 * O        21     -0.03383             -0.00174              0.02800         *
 * O        22     -0.03372             -0.00179              0.02805         *
 * O        23      0.02626             -0.02584              0.01561         *
 * O        24      0.02615             -0.02589              0.01556         *
 * Na        1      0.00111              0.02150             -0.00579         *
 * Na        2      0.00111              0.02140             -0.00578         *
 * Na        3     -0.00111             -0.02150              0.00579         *
 * Na        4     -0.00111             -0.02140              0.00578         *
 * Al        1      0.00917             -0.01346              0.00027         *
 * Al        2      0.00917             -0.01342              0.00027         *
 * Al        3     -0.00917              0.01346             -0.00027         *
 * Al        4     -0.00917              0.01342             -0.00027         *
 * Si        1      0.01143              0.02799             -0.00173         *
 * Si        2      0.01137              0.02809             -0.00174         *
 * Si        3      0.00722             -0.02091              0.01029         *
 * Si        4      0.00727             -0.02081              0.01030         *
 * Si        5     -0.01143             -0.02799              0.00173         *
 * Si        6     -0.01137             -0.02809              0.00174         *
 * Si        7     -0.00722              0.02091             -0.01029         *
 * Si        8     -0.00727              0.02081             -0.01030         *
 *                                                                            *
 ******************************************************************************
  
 +------------+-------------+-------------+-----------------+ <-- min BFGS
 |    Step    |   lambda    |   F.delta   |    enthalpy     | <-- min BFGS
 +------------+-------------+-------------+-----------------+ <-- min BFGS
 |  previous  |    0.000000 |    0.000080 |   -16835.321205 | <-- min BFGS
 | trial step |    1.000000 |    0.000057 |   -16835.323071 | <-- min BFGS
 |  line step |    3.404304 |    0.000000 |   -16835.324929 | <-- min BFGS
 +------------+-------------+-------------+-----------------+ <-- min BFGS
  
 BFGS: finished iteration     1 with enthalpy= -1.68353249E+004 eV
  
 +-----------+-----------------+-----------------+------------+-----+ <-- BFGS
 | Parameter |      value      |    tolerance    |    units   | OK? | <-- BFGS
 +-----------+-----------------+-----------------+------------+-----+ <-- BFGS
 |  dE/ion   |   9.309720E-005 |   2.000000E-007 |         eV | No  | <-- BFGS
 |  |F|max   |   7.396117E-002 |   1.000000E-003 |       eV/A | No  | <-- BFGS
 |  |dR|max  |   4.196781E-003 |   1.000000E-003 |          A | No  | <-- BFGS
 +-----------+-----------------+-----------------+------------+-----+ <-- BFGS
  

================================================================================
 Starting BFGS iteration          2 ...
================================================================================
 
Writing model to jadeite_4_30_GPa_cij__2__2.check
  
 +------------+-------------+-------------+-----------------+ <-- min BFGS
 |    Step    |   lambda    |   F.delta   |    enthalpy     | <-- min BFGS
 +------------+-------------+-------------+-----------------+ <-- min BFGS
 |  previous  |    0.000000 |    0.000013 |   -16835.324929 | <-- min BFGS
 +------------+-------------+-------------+-----------------+ <-- min BFGS
  

--------------------------------------------------------------------------------
 BFGS: starting iteration         2 with trial guess (lambda=  1.000000)
--------------------------------------------------------------------------------
 
                           -------------------------------
                                     Cell Contents
                           -------------------------------
 
            xxxxxxxxxxxxxxxxxxxxxxxxxxxxxxxxxxxxxxxxxxxxxxxxxxxxxxxxxxxx
            x  Element    Atom        Fractional coordinates of atoms  x
            x            Number           u          v          w      x
            x----------------------------------------------------------x
            x  O            1         0.109313   0.076955   0.129371   x
            x  O            2         0.609315   0.576953   0.129374   x
            x  O            3         0.890697   0.076964   0.370690   x
            x  O            4         0.390696   0.576963   0.370687   x
            x  O            5         0.890687   0.923045   0.870629   x
            x  O            6         0.390685   0.423047   0.870626   x
            x  O            7         0.109303   0.923036   0.629310   x
            x  O            8         0.609304   0.423037   0.629313   x
            x  O            9         0.361040   0.263857   0.295498   x
            x  O           10         0.861039   0.763858   0.295497   x
            x  O           11         0.639017   0.263691   0.204580   x
            x  O           12         0.139018   0.763691   0.204581   x
            x  O           13         0.638960   0.736143   0.704502   x
            x  O           14         0.138961   0.236142   0.704503   x
            x  O           15         0.360983   0.736309   0.795420   x
            x  O           16         0.860982   0.236309   0.795419   x
            x  O           17         0.354229   0.008577   1.005272   x
            x  O           18         0.854232   0.508573   1.005281   x
            x  O           19         0.645782   0.008454   0.494982   x
            x  O           20         0.145779   0.508451   0.494972   x
            x  O           21         0.645771   0.991423  -0.005272   x
            x  O           22         0.145768   0.491427  -0.005281   x
            x  O           23         0.354218   0.991546   0.505018   x
            x  O           24         0.854221   0.491549   0.505028   x
            x  Na           1        -0.000011   0.301247   0.249961   x
            x  Na           2         0.499989   0.801251   0.249961   x
            x  Na           3         0.000011   0.698753   0.750039   x
            x  Na           4         0.500011   0.198749   0.750039   x
            x  Al           1         0.000051   0.906249   0.250024   x
            x  Al           2         0.500051   0.406249   0.250024   x
            x  Al           3        -0.000051   0.093751   0.749976   x
            x  Al           4         0.499949   0.593751   0.749976   x
            x  Si           1         0.290697   0.093983   0.227967   x
            x  Si           2         0.790699   0.593982   0.227973   x
            x  Si           3         0.709333   0.094283   0.272027   x
            x  Si           4         0.209331   0.594282   0.272022   x
            x  Si           5         0.709303   0.906017   0.772033   x
            x  Si           6         0.209301   0.406018   0.772027   x
            x  Si           7         0.290667   0.905717   0.727973   x
            x  Si           8         0.790669   0.405718   0.727978   x
            xxxxxxxxxxxxxxxxxxxxxxxxxxxxxxxxxxxxxxxxxxxxxxxxxxxxxxxxxxxx
 
 
------------------------------------------------------------------------ <-- SCF
SCF loop      Energy                           Energy gain       Timer   <-- SCF
                                               per atom          (sec)   <-- SCF
------------------------------------------------------------------------ <-- SCF
Initial  -1.68460262E+004                                        346.69  <-- SCF
      1  -1.68460274E+004                    3.11269871E-005     364.86  <-- SCF
      2  -1.68460274E+004                    1.17006788E-008     382.97  <-- SCF
      3  -1.68460274E+004                    1.05336272E-010     401.87  <-- SCF
      4  -1.68460274E+004                    2.32018220E-012     422.90  <-- SCF
------------------------------------------------------------------------ <-- SCF
 
Final energy =  -16846.02742958     eV
(energy not corrected for finite basis set)
 
 
 *********************************** Forces ***********************************
 *                                                                            *
 *                        Cartesian components (eV/A)                         *
 * -------------------------------------------------------------------------- *
 *                   x                    y                    z              *
 *                                                                            *
 * O         1     -0.03067             -0.00186              0.02625         *
 * O         2     -0.03081             -0.00181              0.02622         *
 * O         3      0.02272              0.01348             -0.01447         *
 * O         4      0.02286              0.01353             -0.01444         *
 * O         5      0.03067              0.00186             -0.02625         *
 * O         6      0.03081              0.00181             -0.02622         *
 * O         7     -0.02272             -0.01348              0.01447         *
 * O         8     -0.02286             -0.01353              0.01444         *
 * O         9     -0.00430              0.04752              0.02069         *
 * O        10     -0.00426              0.04748              0.02070         *
 * O        11      0.00011              0.06116             -0.01795         *
 * O        12      0.00007              0.06111             -0.01797         *
 * O        13      0.00430             -0.04752             -0.02069         *
 * O        14      0.00426             -0.04748             -0.02070         *
 * O        15     -0.00011             -0.06116              0.01795         *
 * O        16     -0.00007             -0.06111              0.01797         *
 * O        17      0.02840              0.00358             -0.02429         *
 * O        18      0.02829              0.00363             -0.02434         *
 * O        19     -0.02231              0.02213             -0.01042         *
 * O        20     -0.02220              0.02218             -0.01037         *
 * O        21     -0.02840             -0.00358              0.02429         *
 * O        22     -0.02829             -0.00363              0.02434         *
 * O        23      0.02231             -0.02213              0.01042         *
 * O        24      0.02220             -0.02218              0.01037         *
 * Na        1      0.00088              0.02154             -0.00592         *
 * Na        2      0.00088              0.02145             -0.00592         *
 * Na        3     -0.00088             -0.02154              0.00592         *
 * Na        4     -0.00088             -0.02145              0.00592         *
 * Al        1      0.00901             -0.01035             -0.00027         *
 * Al        2      0.00901             -0.01032             -0.00027         *
 * Al        3     -0.00901              0.01035              0.00027         *
 * Al        4     -0.00901              0.01032              0.00027         *
 * Si        1      0.01253              0.02172             -0.00105         *
 * Si        2      0.01247              0.02180             -0.00106         *
 * Si        3      0.00206             -0.01716              0.00716         *
 * Si        4      0.00212             -0.01709              0.00717         *
 * Si        5     -0.01253             -0.02172              0.00105         *
 * Si        6     -0.01247             -0.02180              0.00106         *
 * Si        7     -0.00206              0.01716             -0.00716         *
 * Si        8     -0.00212              0.01709             -0.00717         *
 *                                                                            *
 ******************************************************************************
  
 +------------+-------------+-------------+-----------------+ <-- min BFGS
 |    Step    |   lambda    |   F.delta   |    enthalpy     | <-- min BFGS
 +------------+-------------+-------------+-----------------+ <-- min BFGS
 |  previous  |    0.000000 |    0.000013 |   -16835.324929 | <-- min BFGS
 | trial step |    1.000000 |    0.000011 |   -16835.325252 | <-- min BFGS
 +------------+-------------+-------------+-----------------+ <-- min BFGS
  

--------------------------------------------------------------------------------
 BFGS: improving iteration         2 with line minimization (lambda=  7.285717)
--------------------------------------------------------------------------------
 
                           -------------------------------
                                     Cell Contents
                           -------------------------------
 
            xxxxxxxxxxxxxxxxxxxxxxxxxxxxxxxxxxxxxxxxxxxxxxxxxxxxxxxxxxxx
            x  Element    Atom        Fractional coordinates of atoms  x
            x            Number           u          v          w      x
            x----------------------------------------------------------x
            x  O            1         0.109199   0.076940   0.129506   x
            x  O            2         0.609200   0.576939   0.129508   x
            x  O            3         0.890772   0.077012   0.370621   x
            x  O            4         0.390771   0.577010   0.370619   x
            x  O            5         0.890801   0.923060   0.870494   x
            x  O            6         0.390800   0.423061   0.870492   x
            x  O            7         0.109228   0.922988   0.629379   x
            x  O            8         0.609229   0.422990   0.629381   x
            x  O            9         0.361034   0.264071   0.295649   x
            x  O           10         0.861033   0.764071   0.295649   x
            x  O           11         0.639019   0.263917   0.204455   x
            x  O           12         0.139020   0.763918   0.204456   x
            x  O           13         0.638966   0.735929   0.704351   x
            x  O           14         0.138967   0.235929   0.704351   x
            x  O           15         0.360981   0.736083   0.795545   x
            x  O           16         0.860980   0.236082   0.795544   x
            x  O           17         0.354395   0.008613   1.005234   x
            x  O           18         0.854397   0.508610   1.005244   x
            x  O           19         0.645644   0.008537   0.494859   x
            x  O           20         0.145641   0.508534   0.494850   x
            x  O           21         0.645605   0.991387  -0.005234   x
            x  O           22         0.145603   0.491390  -0.005244   x
            x  O           23         0.354356   0.991463   0.505141   x
            x  O           24         0.854359   0.491466   0.505150   x
            x  Na           1        -0.000011   0.301325   0.249919   x
            x  Na           2         0.499989   0.801329   0.249919   x
            x  Na           3         0.000011   0.698675   0.750081   x
            x  Na           4         0.500011   0.198671   0.750081   x
            x  Al           1         0.000095   0.906196   0.250049   x
            x  Al           2         0.500095   0.406196   0.250049   x
            x  Al           3        -0.000095   0.093804   0.749951   x
            x  Al           4         0.499905   0.593804   0.749951   x
            x  Si           1         0.290686   0.094123   0.227940   x
            x  Si           2         0.790687   0.594123   0.227946   x
            x  Si           3         0.709413   0.094340   0.272133   x
            x  Si           4         0.209411   0.594340   0.272128   x
            x  Si           5         0.709314   0.905877   0.772060   x
            x  Si           6         0.209313   0.405877   0.772054   x
            x  Si           7         0.290587   0.905660   0.727867   x
            x  Si           8         0.790589   0.405660   0.727872   x
            xxxxxxxxxxxxxxxxxxxxxxxxxxxxxxxxxxxxxxxxxxxxxxxxxxxxxxxxxxxx
 
 
------------------------------------------------------------------------ <-- SCF
SCF loop      Energy                           Energy gain       Timer   <-- SCF
                                               per atom          (sec)   <-- SCF
------------------------------------------------------------------------ <-- SCF
Initial  -1.68459915E+004                                        431.03  <-- SCF
      1  -1.68460284E+004                    9.21959850E-004     449.29  <-- SCF
      2  -1.68460284E+004                    3.53301800E-007     467.40  <-- SCF
      3  -1.68460284E+004                    2.82791540E-009     485.42  <-- SCF
      4  -1.68460284E+004                    5.87779491E-011     503.53  <-- SCF
------------------------------------------------------------------------ <-- SCF
 
Final energy =  -16846.02837234     eV
(energy not corrected for finite basis set)
 
 
 *********************************** Forces ***********************************
 *                                                                            *
 *                        Cartesian components (eV/A)                         *
 * -------------------------------------------------------------------------- *
 *                   x                    y                    z              *
 *                                                                            *
 * O         1      0.01827              0.01340              0.01554         *
 * O         2      0.01828              0.01347              0.01553         *
 * O         3      0.00568              0.01655             -0.01079         *
 * O         4      0.00567              0.01662             -0.01078         *
 * O         5     -0.01827             -0.01340             -0.01554         *
 * O         6     -0.01828             -0.01347             -0.01553         *
 * O         7     -0.00568             -0.01655              0.01079         *
 * O         8     -0.00567             -0.01662              0.01078         *
 * O         9     -0.02451              0.00855              0.01523         *
 * O        10     -0.02445              0.00858              0.01525         *
 * O        11      0.03161             -0.00267             -0.01241         *
 * O        12      0.03156             -0.00264             -0.01243         *
 * O        13      0.02451             -0.00855             -0.01523         *
 * O        14      0.02445             -0.00858             -0.01525         *
 * O        15     -0.03161              0.00267              0.01241         *
 * O        16     -0.03156              0.00264              0.01243         *
 * O        17     -0.00583              0.01502             -0.00108         *
 * O        18     -0.00596              0.01505             -0.00113         *
 * O        19      0.00257             -0.00103              0.02194         *
 * O        20      0.00269             -0.00099              0.02199         *
 * O        21      0.00583             -0.01502              0.00108         *
 * O        22      0.00596             -0.01505              0.00113         *
 * O        23     -0.00257              0.00103             -0.02194         *
 * O        24     -0.00269              0.00099             -0.02199         *
 * Na        1     -0.00055              0.02180             -0.00678         *
 * Na        2     -0.00055              0.02171             -0.00678         *
 * Na        3      0.00055             -0.02180              0.00678         *
 * Na        4      0.00055             -0.02171              0.00678         *
 * Al        1      0.00797              0.00919             -0.00361         *
 * Al        2      0.00797              0.00919             -0.00361         *
 * Al        3     -0.00797             -0.00919              0.00361         *
 * Al        4     -0.00797             -0.00919              0.00361         *
 * Si        1      0.01949             -0.01758              0.00318         *
 * Si        2      0.01937             -0.01765              0.00315         *
 * Si        3     -0.03030              0.00611             -0.01243         *
 * Si        4     -0.03017              0.00604             -0.01240         *
 * Si        5     -0.01949              0.01758             -0.00318         *
 * Si        6     -0.01937              0.01765             -0.00315         *
 * Si        7      0.03030             -0.00611              0.01243         *
 * Si        8      0.03017             -0.00604              0.01240         *
 *                                                                            *
 ******************************************************************************
  
 +------------+-------------+-------------+-----------------+ <-- min BFGS
 |    Step    |   lambda    |   F.delta   |    enthalpy     | <-- min BFGS
 +------------+-------------+-------------+-----------------+ <-- min BFGS
 |  previous  |    0.000000 |    0.000013 |   -16835.324929 | <-- min BFGS
 | trial step |    1.000000 |    0.000011 |   -16835.325252 | <-- min BFGS
 |  line step |    7.285717 |    0.000000 |   -16835.326195 | <-- min BFGS
 +------------+-------------+-------------+-----------------+ <-- min BFGS
  
 BFGS: finished iteration     2 with enthalpy= -1.68353262E+004 eV
  
 +-----------+-----------------+-----------------+------------+-----+ <-- BFGS
 | Parameter |      value      |    tolerance    |    units   | OK? | <-- BFGS
 +-----------+-----------------+-----------------+------------+-----+ <-- BFGS
 |  dE/ion   |   3.165670E-005 |   2.000000E-007 |         eV | No  | <-- BFGS
 |  |F|max   |   3.406761E-002 |   1.000000E-003 |       eV/A | No  | <-- BFGS
 |  |dR|max  |   2.369920E-003 |   1.000000E-003 |          A | No  | <-- BFGS
 +-----------+-----------------+-----------------+------------+-----+ <-- BFGS
  

================================================================================
 Starting BFGS iteration          3 ...
================================================================================
 
Writing model to jadeite_4_30_GPa_cij__2__2.check
  
 +------------+-------------+-------------+-----------------+ <-- min BFGS
 |    Step    |   lambda    |   F.delta   |    enthalpy     | <-- min BFGS
 +------------+-------------+-------------+-----------------+ <-- min BFGS
 |  previous  |    0.000000 |    0.000005 |   -16835.326195 | <-- min BFGS
 +------------+-------------+-------------+-----------------+ <-- min BFGS
  

--------------------------------------------------------------------------------
 BFGS: starting iteration         3 with trial guess (lambda=  1.000000)
--------------------------------------------------------------------------------
 
                           -------------------------------
                                     Cell Contents
                           -------------------------------
 
            xxxxxxxxxxxxxxxxxxxxxxxxxxxxxxxxxxxxxxxxxxxxxxxxxxxxxxxxxxxx
            x  Element    Atom        Fractional coordinates of atoms  x
            x            Number           u          v          w      x
            x----------------------------------------------------------x
            x  O            1         0.109202   0.076947   0.129534   x
            x  O            2         0.609203   0.576946   0.129536   x
            x  O            3         0.890780   0.077024   0.370608   x
            x  O            4         0.390779   0.577023   0.370607   x
            x  O            5         0.890798   0.923053   0.870466   x
            x  O            6         0.390797   0.423054   0.870464   x
            x  O            7         0.109220   0.922976   0.629392   x
            x  O            8         0.609221   0.422977   0.629393   x
            x  O            9         0.361020   0.264088   0.295665   x
            x  O           10         0.861020   0.764089   0.295665   x
            x  O           11         0.639036   0.263929   0.204446   x
            x  O           12         0.139037   0.763929   0.204446   x
            x  O           13         0.638980   0.735912   0.704335   x
            x  O           14         0.138980   0.235911   0.704335   x
            x  O           15         0.360964   0.736071   0.795554   x
            x  O           16         0.860963   0.236071   0.795554   x
            x  O           17         0.354401   0.008624   1.005229   x
            x  O           18         0.854404   0.508621   1.005239   x
            x  O           19         0.645637   0.008541   0.494873   x
            x  O           20         0.145635   0.508538   0.494864   x
            x  O           21         0.645599   0.991376  -0.005229   x
            x  O           22         0.145596   0.491379  -0.005239   x
            x  O           23         0.354363   0.991459   0.505127   x
            x  O           24         0.854365   0.491462   0.505136   x
            x  Na           1        -0.000011   0.301342   0.249910   x
            x  Na           2         0.499989   0.801346   0.249910   x
            x  Na           3         0.000011   0.698658   0.750090   x
            x  Na           4         0.500011   0.198654   0.750090   x
            x  Al           1         0.000101   0.906198   0.250049   x
            x  Al           2         0.500101   0.406198   0.250049   x
            x  Al           3        -0.000101   0.093802   0.749951   x
            x  Al           4         0.499899   0.593802   0.749951   x
            x  Si           1         0.290695   0.094121   0.227947   x
            x  Si           2         0.790697   0.594121   0.227953   x
            x  Si           3         0.709401   0.094347   0.272119   x
            x  Si           4         0.209400   0.594347   0.272114   x
            x  Si           5         0.709305   0.905879   0.772053   x
            x  Si           6         0.209303   0.405879   0.772047   x
            x  Si           7         0.290599   0.905653   0.727881   x
            x  Si           8         0.790600   0.405653   0.727886   x
            xxxxxxxxxxxxxxxxxxxxxxxxxxxxxxxxxxxxxxxxxxxxxxxxxxxxxxxxxxxx
 
 
------------------------------------------------------------------------ <-- SCF
SCF loop      Energy                           Energy gain       Timer   <-- SCF
                                               per atom          (sec)   <-- SCF
------------------------------------------------------------------------ <-- SCF
Initial  -1.68460280E+004                                        513.93  <-- SCF
      1  -1.68460285E+004                    1.30309513E-005     532.12  <-- SCF
      2  -1.68460285E+004                    5.04484950E-009     550.23  <-- SCF
      3  -1.68460285E+004                    3.27919084E-011     569.06  <-- SCF
------------------------------------------------------------------------ <-- SCF
 
Final energy =  -16846.02849115     eV
(energy not corrected for finite basis set)
 
 
 *********************************** Forces ***********************************
 *                                                                            *
 *                        Cartesian components (eV/A)                         *
 * -------------------------------------------------------------------------- *
 *                   x                    y                    z              *
 *                                                                            *
 * O         1      0.01887              0.01284              0.01361         *
 * O         2      0.01886              0.01291              0.01360         *
 * O         3      0.00060              0.01658             -0.01000         *
 * O         4      0.00060              0.01665             -0.00999         *
 * O         5     -0.01887             -0.01284             -0.01361         *
 * O         6     -0.01886             -0.01291             -0.01360         *
 * O         7     -0.00060             -0.01658              0.01000         *
 * O         8     -0.00060             -0.01665              0.00999         *
 * O         9     -0.02364              0.00580              0.01374         *
 * O        10     -0.02361              0.00580              0.01377         *
 * O        11      0.02953             -0.00224             -0.01208         *
 * O        12      0.02949             -0.00224             -0.01210         *
 * O        13      0.02364             -0.00580             -0.01374         *
 * O        14      0.02361             -0.00580             -0.01377         *
 * O        15     -0.02953              0.00224              0.01208         *
 * O        16     -0.02949              0.00224              0.01210         *
 * O        17     -0.00530              0.01456             -0.00160         *
 * O        18     -0.00543              0.01459             -0.00165         *
 * O        19      0.00246              0.00174              0.01783         *
 * O        20      0.00258              0.00178              0.01788         *
 * O        21      0.00530             -0.01456              0.00160         *
 * O        22      0.00543             -0.01459              0.00165         *
 * O        23     -0.00246             -0.00174             -0.01783         *
 * O        24     -0.00258             -0.00178             -0.01788         *
 * Na        1     -0.00020              0.02080             -0.00643         *
 * Na        2     -0.00020              0.02071             -0.00643         *
 * Na        3      0.00020             -0.02080              0.00643         *
 * Na        4      0.00020             -0.02071              0.00643         *
 * Al        1      0.00677              0.00994             -0.00301         *
 * Al        2      0.00677              0.00993             -0.00301         *
 * Al        3     -0.00677             -0.00994              0.00301         *
 * Al        4     -0.00677             -0.00993              0.00301         *
 * Si        1      0.01647             -0.01340              0.00321         *
 * Si        2      0.01638             -0.01344              0.00319         *
 * Si        3     -0.02407              0.00291             -0.01011         *
 * Si        4     -0.02398              0.00287             -0.01009         *
 * Si        5     -0.01647              0.01340             -0.00321         *
 * Si        6     -0.01638              0.01344             -0.00319         *
 * Si        7      0.02407             -0.00291              0.01011         *
 * Si        8      0.02398             -0.00287              0.01009         *
 *                                                                            *
 ******************************************************************************
  
 +------------+-------------+-------------+-----------------+ <-- min BFGS
 |    Step    |   lambda    |   F.delta   |    enthalpy     | <-- min BFGS
 +------------+-------------+-------------+-----------------+ <-- min BFGS
 |  previous  |    0.000000 |    0.000005 |   -16835.326195 | <-- min BFGS
 | trial step |    1.000000 |    0.000004 |   -16835.326314 | <-- min BFGS
 +------------+-------------+-------------+-----------------+ <-- min BFGS
  

--------------------------------------------------------------------------------
 BFGS: improving iteration         3 with line minimization (lambda=  9.153908)
--------------------------------------------------------------------------------
 
                           -------------------------------
                                     Cell Contents
                           -------------------------------
 
            xxxxxxxxxxxxxxxxxxxxxxxxxxxxxxxxxxxxxxxxxxxxxxxxxxxxxxxxxxxx
            x  Element    Atom        Fractional coordinates of atoms  x
            x            Number           u          v          w      x
            x----------------------------------------------------------x
            x  O            1         0.109228   0.077002   0.129761   x
            x  O            2         0.609229   0.577001   0.129763   x
            x  O            3         0.890841   0.077123   0.370507   x
            x  O            4         0.390840   0.577122   0.370505   x
            x  O            5         0.890772   0.922998   0.870239   x
            x  O            6         0.390771   0.422999   0.870237   x
            x  O            7         0.109159   0.922877   0.629493   x
            x  O            8         0.609160   0.422878   0.629495   x
            x  O            9         0.360910   0.264229   0.295795   x
            x  O           10         0.860910   0.764230   0.295795   x
            x  O           11         0.639176   0.264025   0.204367   x
            x  O           12         0.139176   0.764026   0.204367   x
            x  O           13         0.639090   0.735771   0.704205   x
            x  O           14         0.139090   0.235770   0.704205   x
            x  O           15         0.360824   0.735975   0.795633   x
            x  O           16         0.860824   0.235974   0.795633   x
            x  O           17         0.354455   0.008710   1.005189   x
            x  O           18         0.854457   0.508708   1.005198   x
            x  O           19         0.645582   0.008576   0.494988   x
            x  O           20         0.145581   0.508573   0.494980   x
            x  O           21         0.645545   0.991290  -0.005189   x
            x  O           22         0.145543   0.491292  -0.005198   x
            x  O           23         0.354418   0.991424   0.505012   x
            x  O           24         0.854419   0.491427   0.505020   x
            x  Na           1        -0.000013   0.301480   0.249838   x
            x  Na           2         0.499986   0.801483   0.249838   x
            x  Na           3         0.000013   0.698520   0.750162   x
            x  Na           4         0.500014   0.198517   0.750162   x
            x  Al           1         0.000158   0.906215   0.250052   x
            x  Al           2         0.500158   0.406216   0.250052   x
            x  Al           3        -0.000158   0.093785   0.749948   x
            x  Al           4         0.499842   0.593784   0.749948   x
            x  Si           1         0.290776   0.094108   0.228005   x
            x  Si           2         0.790776   0.594107   0.228010   x
            x  Si           3         0.709306   0.094403   0.272003   x
            x  Si           4         0.209306   0.594402   0.271998   x
            x  Si           5         0.709224   0.905892   0.771995   x
            x  Si           6         0.209224   0.405893   0.771990   x
            x  Si           7         0.290694   0.905597   0.727997   x
            x  Si           8         0.790694   0.405598   0.728002   x
            xxxxxxxxxxxxxxxxxxxxxxxxxxxxxxxxxxxxxxxxxxxxxxxxxxxxxxxxxxxx
 
 
------------------------------------------------------------------------ <-- SCF
SCF loop      Energy                           Energy gain       Timer   <-- SCF
                                               per atom          (sec)   <-- SCF
------------------------------------------------------------------------ <-- SCF
Initial  -1.68460046E+004                                        577.22  <-- SCF
      1  -1.68460289E+004                    6.08384140E-004     595.44  <-- SCF
      2  -1.68460289E+004                    2.18550490E-007     613.44  <-- SCF
      3  -1.68460289E+004                    1.43433664E-009     631.51  <-- SCF
      4  -1.68460289E+004                    2.88475987E-011     650.30  <-- SCF
------------------------------------------------------------------------ <-- SCF
 
Final energy =  -16846.02894654     eV
(energy not corrected for finite basis set)
 
 
 *********************************** Forces ***********************************
 *                                                                            *
 *                        Cartesian components (eV/A)                         *
 * -------------------------------------------------------------------------- *
 *                   x                    y                    z              *
 *                                                                            *
 * O         1      0.02380              0.00828             -0.00213         *
 * O         2      0.02368              0.00830             -0.00212         *
 * O         3     -0.04066              0.01679             -0.00354         *
 * O         4     -0.04054              0.01681             -0.00355         *
 * O         5     -0.02380             -0.00828              0.00213         *
 * O         6     -0.02368             -0.00830              0.00212         *
 * O         7      0.04066             -0.01679              0.00354         *
 * O         8      0.04054             -0.01681              0.00355         *
 * O         9     -0.01652             -0.01673              0.00156         *
 * O        10     -0.01661             -0.01694              0.00157         *
 * O        11      0.01248              0.00114             -0.00930         *
 * O        12      0.01257              0.00093             -0.00931         *
 * O        13      0.01652              0.01673             -0.00156         *
 * O        14      0.01661              0.01694             -0.00157         *
 * O        15     -0.01248             -0.00114              0.00930         *
 * O        16     -0.01257             -0.00093              0.00931         *
 * O        17     -0.00105              0.01080             -0.00586         *
 * O        18     -0.00116              0.01082             -0.00592         *
 * O        19      0.00160              0.02427             -0.01557         *
 * O        20      0.00171              0.02429             -0.01552         *
 * O        21      0.00105             -0.01080              0.00586         *
 * O        22      0.00116             -0.01082              0.00592         *
 * O        23     -0.00160             -0.02427              0.01557         *
 * O        24     -0.00171             -0.02429              0.01552         *
 * Na        1      0.00268              0.01248             -0.00352         *
 * Na        2      0.00268              0.01243             -0.00352         *
 * Na        3     -0.00268             -0.01248              0.00352         *
 * Na        4     -0.00268             -0.01243              0.00352         *
 * Al        1     -0.00296              0.01602              0.00192         *
 * Al        2     -0.00296              0.01595              0.00192         *
 * Al        3      0.00296             -0.01602             -0.00192         *
 * Al        4      0.00296             -0.01595             -0.00192         *
 * Si        1     -0.00824              0.02074              0.00349         *
 * Si        2     -0.00807              0.02094              0.00348         *
 * Si        3      0.02656             -0.02309              0.00870         *
 * Si        4      0.02640             -0.02289              0.00871         *
 * Si        5      0.00824             -0.02074             -0.00349         *
 * Si        6      0.00807             -0.02094             -0.00348         *
 * Si        7     -0.02656              0.02309             -0.00870         *
 * Si        8     -0.02640              0.02289             -0.00871         *
 *                                                                            *
 ******************************************************************************
  
 +------------+-------------+-------------+-----------------+ <-- min BFGS
 |    Step    |   lambda    |   F.delta   |    enthalpy     | <-- min BFGS
 +------------+-------------+-------------+-----------------+ <-- min BFGS
 |  previous  |    0.000000 |    0.000005 |   -16835.326195 | <-- min BFGS
 | trial step |    1.000000 |    0.000004 |   -16835.326314 | <-- min BFGS
 |  line step |    9.153908 |    0.000000 |   -16835.326769 | <-- min BFGS
 +------------+-------------+-------------+-----------------+ <-- min BFGS
  
 BFGS: finished iteration     3 with enthalpy= -1.68353268E+004 eV
  
 +-----------+-----------------+-----------------+------------+-----+ <-- BFGS
 | Parameter |      value      |    tolerance    |    units   | OK? | <-- BFGS
 +-----------+-----------------+-----------------+------------+-----+ <-- BFGS
 |  dE/ion   |   1.435495E-005 |   2.000000E-007 |         eV | No  | <-- BFGS
 |  |F|max   |   4.413163E-002 |   1.000000E-003 |       eV/A | No  | <-- BFGS
 |  |dR|max  |   2.076822E-003 |   1.000000E-003 |          A | No  | <-- BFGS
 +-----------+-----------------+-----------------+------------+-----+ <-- BFGS
  

================================================================================
 Starting BFGS iteration          4 ...
================================================================================
 
Writing model to jadeite_4_30_GPa_cij__2__2.check
  
[...]
            x  O           20         0.145621   0.509286   0.495754   x
            x  O           21         0.645575   0.990543  -0.004320   x
            x  O           22         0.145575   0.490543  -0.004320   x
            x  O           23         0.354378   0.990714   0.504246   x
            x  O           24         0.854379   0.490714   0.504246   x
            x  Na           1         0.000117   0.302038   0.249577   x
            x  Na           2         0.500117   0.802039   0.249577   x
            x  Na           3        -0.000117   0.697962   0.750423   x
            x  Na           4         0.499883   0.197961   0.750423   x
            x  Al           1         0.000172   0.906241   0.250074   x
            x  Al           2         0.500172   0.406241   0.250074   x
            x  Al           3        -0.000172   0.093759   0.749926   x
            x  Al           4         0.499828   0.593759   0.749926   x
            x  Si           1         0.290812   0.094161   0.227948   x
            x  Si           2         0.790812   0.594161   0.227948   x
            x  Si           3         0.709346   0.094380   0.272128   x
            x  Si           4         0.209346   0.594380   0.272128   x
            x  Si           5         0.709188   0.905839   0.772052   x
            x  Si           6         0.209188   0.405839   0.772052   x
            x  Si           7         0.290654   0.905620   0.727872   x
            x  Si           8         0.790654   0.405620   0.727872   x
            xxxxxxxxxxxxxxxxxxxxxxxxxxxxxxxxxxxxxxxxxxxxxxxxxxxxxxxxxxxx
 
 
 BFGS: Final Enthalpy     = -1.68353276E+004 eV
 BFGS: Final <frequency>  =     927.02737 cm-1
 
 ***************************** Symmetrised Forces *****************************
 *                                                                            *
 *                        Cartesian components (eV/A)                         *
 * -------------------------------------------------------------------------- *
 *                   x                    y                    z              *
 *                                                                            *
 * O         1      0.00017              0.00007             -0.00010         *
 * O         2      0.00007              0.00006             -0.00010         *
 * O         3     -0.00015              0.00010             -0.00015         *
 * O         4     -0.00006              0.00009             -0.00015         *
 * O         5     -0.00017             -0.00007              0.00010         *
 * O         6     -0.00007             -0.00006              0.00010         *
 * O         7      0.00015             -0.00010              0.00015         *
 * O         8      0.00006             -0.00009              0.00015         *
 * O         9      0.00028             -0.00011             -0.00072         *
 * O        10      0.00019             -0.00027             -0.00072         *
 * O        11      0.00006             -0.00022              0.00013         *
 * O        12      0.00014             -0.00038              0.00013         *
 * O        13     -0.00028              0.00011              0.00072         *
 * O        14     -0.00019              0.00027              0.00072         *
 * O        15     -0.00006              0.00022             -0.00013         *
 * O        16     -0.00014              0.00038             -0.00013         *
 * O        17      0.00017             -0.00016             -0.00048         *
 * O        18      0.00013             -0.00016             -0.00049         *
 * O        19     -0.00049             -0.00022             -0.00027         *
 * O        20     -0.00045             -0.00023             -0.00026         *
 * O        21     -0.00017              0.00016              0.00048         *
 * O        22     -0.00013              0.00016              0.00049         *
 * O        23      0.00049              0.00022              0.00027         *
 * O        24      0.00045              0.00023              0.00026         *
 * Na        1     -0.00023              0.00066             -0.00020         *
 * Na        2     -0.00023              0.00067             -0.00020         *
 * Na        3      0.00023             -0.00066              0.00020         *
 * Na        4      0.00023             -0.00067              0.00020         *
 * Al        1      0.00027             -0.00044             -0.00033         *
 * Al        2      0.00027             -0.00047             -0.00033         *
 * Al        3     -0.00027              0.00044              0.00033         *
 * Al        4     -0.00027              0.00047              0.00033         *
 * Si        1     -0.00025             -0.00008             -0.00031         *
 * Si        2     -0.00009              0.00010             -0.00029         *
 * Si        3     -0.00037             -0.00017              0.00022         *
 * Si        4     -0.00052              0.00000              0.00020         *
 * Si        5      0.00025              0.00008              0.00031         *
 * Si        6      0.00009             -0.00010              0.00029         *
 * Si        7      0.00037              0.00017             -0.00022         *
 * Si        8      0.00052              0.00000             -0.00020         *
 *                                                                            *
 ******************************************************************************
 
 *********** Symmetrised Stress Tensor ***********
 *                                               *
 *          Cartesian components (GPa)           *
 * --------------------------------------------- *
 *             x             y             z     *
 *                                               *
 *  x     -4.539705     -0.350978     -0.340999  *
 *  y     -0.350978     -4.593294     -0.041398  *
 *  z     -0.340999     -0.041398     -5.895587  *
 *                                               *
 *  Pressure:    5.0095                          *
 *                                               *
 *************************************************
 
 Pseudo atomic calculation performed for O 2s2 2p4
 
 Converged in 36 iterations to a total energy of -429.6485 eV
 
 
 Pseudo atomic calculation performed for Na 2s2 2p6 3s1
 
 Converged in 33 iterations to a total energy of -1302.8467 eV
 
 
 Pseudo atomic calculation performed for Al 3s2 3p1
 
 Converged in 20 iterations to a total energy of -52.7392 eV
 
 
 Pseudo atomic calculation performed for Si 3s2 3p2
 
 Converged in 21 iterations to a total energy of -101.9044 eV
 
Charge spilling parameter for spin component 1 = 0.85%
 
     Atomic Populations (Mulliken)
     -----------------------------
Species   Ion     s      p      d      f     Total  Charge (e)
==============================================================
  O        1     1.84   5.24   0.00   0.00   7.08    -1.08
  O        2     1.84   5.24   0.00   0.00   7.08    -1.08
  O        3     1.84   5.24   0.00   0.00   7.08    -1.08
  O        4     1.84   5.24   0.00   0.00   7.08    -1.08
  O        5     1.84   5.24   0.00   0.00   7.08    -1.08
  O        6     1.84   5.24   0.00   0.00   7.08    -1.08
  O        7     1.84   5.24   0.00   0.00   7.08    -1.08
  O        8     1.84   5.24   0.00   0.00   7.08    -1.08
  O        9     1.84   5.29   0.00   0.00   7.12    -1.12
  O       10     1.84   5.29   0.00   0.00   7.12    -1.12
  O       11     1.84   5.29   0.00   0.00   7.12    -1.12
  O       12     1.84   5.29   0.00   0.00   7.12    -1.12
  O       13     1.84   5.29   0.00   0.00   7.12    -1.12
  O       14     1.84   5.29   0.00   0.00   7.12    -1.12
  O       15     1.84   5.29   0.00   0.00   7.12    -1.12
  O       16     1.84   5.29   0.00   0.00   7.12    -1.12
  O       17     1.83   5.30   0.00   0.00   7.12    -1.12
  O       18     1.83   5.30   0.00   0.00   7.12    -1.12
  O       19     1.83   5.30   0.00   0.00   7.12    -1.12
  O       20     1.83   5.30   0.00   0.00   7.12    -1.12
  O       21     1.83   5.30   0.00   0.00   7.12    -1.12
  O       22     1.83   5.30   0.00   0.00   7.12    -1.12
  O       23     1.83   5.30   0.00   0.00   7.12    -1.12
  O       24     1.83   5.30   0.00   0.00   7.12    -1.12
  Na       1     2.04   5.77   0.00   0.00   7.81     1.19
  Na       2     2.04   5.77   0.00   0.00   7.81     1.19
  Na       3     2.04   5.77   0.00   0.00   7.81     1.19
  Na       4     2.04   5.77   0.00   0.00   7.81     1.19
  Al       1     0.51   0.92   0.00   0.00   1.42     1.58
  Al       2     0.51   0.92   0.00   0.00   1.42     1.58
  Al       3     0.51   0.92   0.00   0.00   1.42     1.58
  Al       4     0.51   0.92   0.00   0.00   1.42     1.58
  Si       1     0.69   1.36   0.00   0.00   2.05     1.95
  Si       2     0.69   1.36   0.00   0.00   2.05     1.95
  Si       3     0.69   1.36   0.00   0.00   2.05     1.95
  Si       4     0.69   1.36   0.00   0.00   2.05     1.95
  Si       5     0.69   1.36   0.00   0.00   2.05     1.95
  Si       6     0.69   1.36   0.00   0.00   2.05     1.95
  Si       7     0.69   1.36   0.00   0.00   2.05     1.95
  Si       8     0.69   1.36   0.00   0.00   2.05     1.95
==============================================================
 
     Bond                     Population      Length (A)
============================================================
   O 013 --   Si 005               0.76        1.59148
   O 009 --   Si 001               0.76        1.59148
   O 014 --   Si 006               0.76        1.59149
   O 010 --   Si 002               0.76        1.59149
   O 011 --   Si 003               0.77        1.59255
   O 015 --   Si 007               0.77        1.59255
   O 012 --   Si 004               0.77        1.59256
   O 016 --   Si 008               0.77        1.59256
   O 022 --   Si 006               0.56        1.62801
   O 018 --   Si 002               0.56        1.62801
   O 021 --   Si 005               0.56        1.62801
   O 017 --   Si 001               0.56        1.62801
   O 024 --   Si 008               0.56        1.62820
   O 020 --   Si 004               0.56        1.62820
   O 019 --   Si 003               0.56        1.62820
   O 023 --   Si 007               0.56        1.62820
   O 002 --   Si 002               0.60        1.63609
   O 006 --   Si 006               0.60        1.63609
   O 001 --   Si 001               0.60        1.63609
   O 005 --   Si 005               0.60        1.63609
   O 008 --   Si 008               0.60        1.63656
   O 004 --   Si 004               0.60        1.63656
   O 003 --   Si 003               0.60        1.63657
   O 007 --   Si 007               0.60        1.63657
   O 023 --   Si 001               0.58        1.63842
   O 019 --   Si 005               0.58        1.63842
   O 024 --   Si 002               0.58        1.63842
   O 020 --   Si 006               0.58        1.63842
   O 021 --   Si 003               0.58        1.63872
   O 017 --   Si 007               0.58        1.63872
   O 018 --   Si 008               0.58        1.63872
   O 022 --   Si 004               0.58        1.63872
   O 010 --   Al 001               0.42        1.85301
   O 014 --   Al 003               0.42        1.85301
   O 009 --   Al 002               0.42        1.85301
   O 013 --   Al 004               0.42        1.85301
   O 016 --   Al 003               0.42        1.85874
   O 012 --   Al 001               0.42        1.85874
   O 015 --   Al 004               0.42        1.85874
   O 011 --   Al 002               0.42        1.85874
   O 007 --   Al 001               0.33        1.93168
   O 003 --   Al 003               0.33        1.93168
   O 008 --   Al 002               0.33        1.93168
   O 004 --   Al 004               0.33        1.93168
   O 001 --   Al 003               0.33        1.93468
   O 005 --   Al 001               0.33        1.93468
   O 006 --   Al 002               0.33        1.93469
   O 002 --   Al 004               0.33        1.93469
   O 006 --   Al 004               0.31        1.99015
   O 002 --   Al 002               0.31        1.99015
   O 005 --   Al 003               0.31        1.99015
   O 001 --   Al 001               0.31        1.99015
   O 004 --   Al 002               0.31        1.99825
   O 008 --   Al 004               0.31        1.99825
   O 007 --   Al 003               0.31        1.99825
   O 003 --   Al 001               0.31        1.99825
   O 007 --   Na 003              -0.02        2.35138
   O 003 --   Na 001              -0.02        2.35138
   O 008 --   Na 004              -0.02        2.35139
   O 004 --   Na 002              -0.02        2.35139
   O 005 --   Na 003              -0.02        2.35591
   O 001 --   Na 001              -0.02        2.35591
   O 002 --   Na 002              -0.02        2.35591
   O 006 --   Na 004              -0.02        2.35591
   O 020 --   Na 001              -0.04        2.36360
   O 024 --   Na 003              -0.04        2.36360
   O 019 --   Na 002              -0.04        2.36360
   O 023 --   Na 004              -0.04        2.36360
   O 018 --   Na 001              -0.04        2.37098
   O 022 --   Na 003              -0.04        2.37098
   O 021 --   Na 004              -0.04        2.37098
   O 017 --   Na 002              -0.04        2.37098
   O 015 --   Na 002              -0.06        2.38919
   O 011 --   Na 004              -0.06        2.38919
   O 012 --   Na 003              -0.06        2.38919
   O 016 --   Na 001              -0.06        2.38919
   O 009 --   Na 004              -0.06        2.39398
   O 013 --   Na 002              -0.06        2.39398
   O 010 --   Na 003              -0.06        2.39398
   O 014 --   Na 001              -0.06        2.39398
   O 001 --    O 005              -0.10        2.47114
   O 002 --    O 006              -0.10        2.47115
   O 003 --    O 007              -0.10        2.47906
   O 004 --    O 008              -0.10        2.47907
   O 013 --    O 019              -0.10        2.58544
   O 009 --    O 023              -0.10        2.58544
   O 014 --    O 020              -0.10        2.58544
   O 010 --    O 024              -0.10        2.58544
   O 011 --    O 021              -0.10        2.58580
   O 015 --    O 017              -0.10        2.58580
   O 016 --    O 018              -0.10        2.58580
   O 012 --    O 022              -0.10        2.58580
   O 019 --    O 021              -0.17        2.59800
   O 017 --    O 023              -0.17        2.59800
   O 020 --    O 022              -0.17        2.59800
   O 018 --    O 024              -0.17        2.59800
   O 007 --    O 017              -0.08        2.63682
   O 003 --    O 021              -0.08        2.63682
   O 004 --    O 022              -0.08        2.63682
   O 008 --    O 018              -0.08        2.63682
   O 005 --    O 019              -0.08        2.63910
   O 001 --    O 023              -0.08        2.63910
   O 006 --    O 020              -0.08        2.63910
   O 002 --    O 024              -0.08        2.63910
   O 004 --    O 020              -0.09        2.64220
   O 008 --    O 024              -0.09        2.64220
   O 003 --    O 019              -0.09        2.64220
   O 007 --    O 023              -0.09        2.64220
   O 006 --    O 022              -0.08        2.64498
   O 002 --    O 018              -0.08        2.64498
   O 005 --    O 021              -0.08        2.64498
   O 001 --    O 017              -0.08        2.64498
   O 013 --    O 021              -0.09        2.64522
   O 009 --    O 017              -0.09        2.64522
   O 014 --    O 022              -0.09        2.64522
   O 010 --    O 018              -0.09        2.64522
   O 011 --    O 019              -0.09        2.64534
   O 015 --    O 023              -0.09        2.64534
   O 016 --    O 024              -0.09        2.64534
   O 012 --    O 020              -0.09        2.64534
   O 005 --    O 010              -0.08        2.67913
   O 001 --    O 014              -0.08        2.67913
   O 006 --    O 009              -0.08        2.67913
   O 002 --    O 013              -0.08        2.67913
   O 003 --    O 016              -0.08        2.67955
   O 007 --    O 012              -0.08        2.67955
   O 008 --    O 011              -0.08        2.67955
   O 004 --    O 015              -0.08        2.67955
   O 017 --   Na 004              -0.02        2.69857
   O 021 --   Na 002              -0.02        2.69857
   O 018 --   Na 003              -0.02        2.69857
   O 022 --   Na 001              -0.02        2.69857
   O 005 --    O 007              -0.05        2.70935
   O 001 --    O 003              -0.05        2.70935
   O 006 --    O 008              -0.05        2.70935
   O 002 --    O 004              -0.05        2.70935
   O 003 --    O 010              -0.05        2.70939
   O 007 --    O 014              -0.05        2.70939
   O 008 --    O 013              -0.05        2.70939
   O 004 --    O 009              -0.05        2.70939
   O 023 --   Na 002              -0.02        2.70952
   O 019 --   Na 004              -0.02        2.70952
   O 024 --   Na 001              -0.02        2.70952
   O 020 --   Na 003              -0.02        2.70952
   O 001 --    O 012              -0.05        2.71140
   O 005 --    O 016              -0.05        2.71140
   O 006 --    O 015              -0.05        2.71140
   O 002 --    O 011              -0.05        2.71140
   O 020 --    O 024              -0.04        2.76005
   O 019 --    O 023              -0.04        2.76005
   O 018 --    O 022              -0.04        2.76072
   O 017 --    O 021              -0.04        2.76072
   O 005 --    O 013              -0.06        2.76929
   O 001 --    O 009              -0.06        2.76929
   O 006 --    O 014              -0.06        2.76929
   O 002 --    O 010              -0.06        2.76929
   O 003 --    O 011              -0.06        2.77674
   O 007 --    O 015              -0.06        2.77674
   O 004 --    O 012              -0.06        2.77674
   O 008 --    O 016              -0.06        2.77674
   O 007 --    O 010              -0.04        2.80032
   O 003 --    O 014              -0.04        2.80032
   O 008 --    O 009              -0.04        2.80033
   O 004 --    O 013              -0.04        2.80033
   O 014 --    O 016              -0.05        2.80236
   O 010 --    O 012              -0.05        2.80236
   O 009 --    O 011              -0.05        2.80236
   O 013 --    O 015              -0.05        2.80236
   O 005 --    O 012              -0.04        2.81187
   O 001 --    O 016              -0.04        2.81187
   O 002 --    O 015              -0.04        2.81187
   O 006 --    O 011              -0.04        2.81187
   O 016 --    O 019              -0.03        2.89443
   O 012 --    O 023              -0.03        2.89443
   O 015 --    O 020              -0.03        2.89444
   O 011 --    O 024              -0.03        2.89444
   O 010 --    O 021              -0.03        2.90313
   O 014 --    O 017              -0.03        2.90313
   O 013 --    O 018              -0.03        2.90314
   O 009 --    O 022              -0.03        2.90314
   O 004 --    O 006              -0.06        2.91010
   O 002 --    O 008              -0.06        2.91010
   O 003 --    O 005              -0.06        2.91010
   O 001 --    O 007              -0.06        2.91010
============================================================
 
 
Writing model to jadeite_4_30_GPa_cij__2__2.check
 
Writing analysis data to jadeite_4_30_GPa_cij__2__2.castep_bin
Initialisation time =      2.25 s
Calculation time    =   2886.68 s
Finalisation time   =      1.31 s
Total time          =   2890.25 s
Peak Memory Use     = 282568 kB
