 +-------------------------------------------------+
 |                                                 |
 |      CCC   AA    SSS  TTTTT  EEEEE  PPPP        |
 |     C     A  A  S       T    E      P   P       |
 |     C     AAAA   SS     T    EEE    PPPP        |
 |     C     A  A     S    T    E      P           |
 |      CCC  A  A  SSS     T    EEEEE  P           |
 |                                                 |
 +-------------------------------------------------+
 |                                                 |
 | Welcome to Academic Release CASTEP version 5.02 |
 | Ab Initio Total Energy Program                  |
 |                                                 |
 | Authors:                                        |
 | M. Segall, M. Probert, C. Pickard, P. Hasnip,   |
 | S. Clark, K. Refson, M. Payne                   |
 |                                                 |
 | Contributors:                                   |
 | P. Lindan, P. Haynes, J. White, V. Milman,      |
 | N. Govind, M. Gibson, P. Tulip, V. Cocula,      |
 | B. Montanari, D. Quigley, M. Glover,            |
 | L. Bernasconi, A. Perlov, M. Plummer            |
 |                                                 |
 | Copyright (c) 2000 - 2009                       |
 |                                                 |
 |     Distributed under the terms of an           |
 |     Agreement between the United Kingdom        |
 |     Car-Parrinello (UKCP) Consortium,           |
 |     Daresbury Laboratory and Accelrys, Inc.     |
 |                                                 |
 | Please cite                                     |
 |                                                 |
 |     "First principles methods using CASTEP"     |
 |                                                 |
 |         Zeitschrift fuer Kristallographie       |
 |           220(5-6) pp. 567-570 (2005)           |
 |                                                 |
 | S. J. Clark, M. D. Segall, C. J. Pickard,       |
 | P. J. Hasnip, M. J. Probert, K. Refson,         |
 | M. C. Payne                                     |
 |                                                 |
 |       in all publications arising from          |
 |              your use of CASTEP                 |
 |                                                 |
 +-------------------------------------------------+
 
 
 Pseudo atomic calculation performed for O 2s2 2p4
 
 Converged in 36 iterations to a total energy of -429.6485 eV
 
 
 Pseudo atomic calculation performed for Na 2s2 2p6 3s1
 
 Converged in 33 iterations to a total energy of -1302.8467 eV
 
 
 Pseudo atomic calculation performed for Al 3s2 3p1
 
 Converged in 20 iterations to a total energy of -52.7392 eV
 
 
 Pseudo atomic calculation performed for Si 3s2 3p2
 
 Converged in 21 iterations to a total energy of -101.9044 eV
 
Calculation parallelised over   36 nodes.
K-points are distributed over    3 groups, each containing   12 nodes.

 ************************************ Title ************************************
 

 ***************************** General Parameters ******************************
  
 output verbosity                               : normal  (1)
 write checkpoint data to                       : jadeite_4_30_GPa_cij__4__1.check
 type of calculation                            : geometry optimization
 stress calculation                             : on
 density difference calculation                 : off
 electron localisation func (ELF) calculation   : off
 Hirshfeld analysis                             : off
 unlimited duration calculation
 timing information                             : on
 memory usage estimate                          : on
 write final potential to formatted file        : off
 write final density to formatted file          : off
  
 output         length unit                     : A
 output           mass unit                     : amu
 output           time unit                     : ps
 output         charge unit                     : e
 output         energy unit                     : eV
 output          force unit                     : eV/A
 output       velocity unit                     : A/ps
 output       pressure unit                     : GPa
 output     inv_length unit                     : 1/A
 output      frequency unit                     : cm-1
 output force constant unit                     : eV/A**2
 output         volume unit                     : A**3
 output   IR intensity unit                     : (D/A)**2/amu
 output         dipole unit                     : D
 output         efield unit                     : eV/A/e
  
 wavefunctions paging                           : none
 data distribution                              : optimal for this architecture
 optimization strategy                          : maximize speed(+++)

 *********************** Exchange-Correlation Parameters ***********************
  
 using functional                               : Perdew Burke Ernzerhof
 Divergence correction                          : off
 DFT+D: Semi-empirical dispersion correction    : off

 ************************* Pseudopotential Parameters **************************
  
 pseudopotential representation                 : reciprocal space
 <beta|phi> representation                      : reciprocal space

 **************************** Basis Set Parameters *****************************
  
 plane wave basis set cut-off                   :   700.0000   eV
 finite basis set correction                    : none

 **************************** Electronic Parameters ****************************
  
 number of  electrons                           :  224.0    
 net charge of system                           :  0.000    
 net spin   of system                           :  0.000    
 number of  up  spins                           :  112.0    
 number of down spins                           :  112.0    
 treating system as non-spin-polarized
 number of bands                                :        112

 ********************* Electronic Minimization Parameters **********************
  
 Method: Treating system as non-metallic,
         and number of  SD  steps               :          1
         and number of  CG  steps               :          4
  
 total energy / atom convergence tol.           : 0.1000E-07   eV
 max force / atom convergence tol.              : ignored
 convergence tolerance window                   :          3   cycles
 max. number of SCF cycles                      :        100

 *********************** Population Analysis Parameters ************************
  
 Population analysis with cutoff                :  3.000       A

 ********************** Geometry Optimization Parameters ***********************
  
 optimization method                            : BFGS
 variable cell method                           : fixed basis quality
 max. number of steps                           :        300
 estimated bulk modulus                         :  500.0       GPa
 estimated <frequency>                          :  1668.       cm-1
 line minimiser tolerance                       :     0.4000
 total energy convergence tolerance             : 0.2000E-06   eV/atom
        max ionic |force| tolerance             : 0.1000E-02   eV/A
 max ionic |displacement| tolerance             : 0.1000E-02   A
   max |stress component| tolerance             : 0.1000E-02   GPa
 convergence tolerance window                   :          2   steps
 backup results every                           :          1   steps

 *******************************************************************************
  
 
                           -------------------------------
                                      Unit Cell
                           -------------------------------
        Real Lattice(A)                      Reciprocal Lattice(1/A)
   8.9813393   0.0000000  -2.7957499        0.6995822   0.0000000   0.0000000
   0.0000000   8.5603493   0.0000000        0.0000000   0.7339870   0.0000000
   0.0000000   0.0000000   5.2199179        0.3746911   0.0000000   1.2036943
 
                       Lattice parameters(A)       Cell Angles
                    a =    9.406417          alpha =   90.000000
                    b =    8.560349          beta  =  107.290545
                    c =    5.219918          gamma =   90.000000
 
                       Current cell volume =  401.325043       A**3
 
                           -------------------------------
                                     Cell Contents
                           -------------------------------
                         Total number of ions in cell =   40
                      Total number of species in cell =    4
                        Max number of any one species =   24
 
            xxxxxxxxxxxxxxxxxxxxxxxxxxxxxxxxxxxxxxxxxxxxxxxxxxxxxxxxxxxx
            x  Element    Atom        Fractional coordinates of atoms  x
            x            Number           u          v          w      x
            x----------------------------------------------------------x
            x  O            1         0.109277   0.076953   0.129205   x
            x  O            2         0.609279   0.576951   0.129208   x
            x  O            3         0.890723   0.076953   0.370795   x
            x  O            4         0.390721   0.576951   0.370792   x
            x  O            5         0.890723   0.923047   0.870795   x
            x  O            6         0.390721   0.423048   0.870792   x
            x  O            7         0.109277   0.923047   0.629205   x
            x  O            8         0.609279   0.423048   0.629208   x
            x  O            9         0.361047   0.263746   0.295383   x
            x  O           10         0.861046   0.763747   0.295382   x
            x  O           11         0.638953   0.263746   0.204617   x
            x  O           12         0.138954   0.763747   0.204618   x
            x  O           13         0.638953   0.736253   0.704617   x
            x  O           14         0.138954   0.236253   0.704618   x
            x  O           15         0.361047   0.736253   0.795383   x
            x  O           16         0.861046   0.236253   0.795382   x
            x  O           17         0.354029   0.008469   1.005059   x
            x  O           18         0.854032   0.508466   1.005069   x
            x  O           19         0.645971   0.008469   0.494941   x
            x  O           20         0.145968   0.508466   0.494931   x
            x  O           21         0.645971   0.991531  -0.005059   x
            x  O           22         0.145968   0.491534  -0.005069   x
            x  O           23         0.354029   0.991531   0.505059   x
            x  O           24         0.854032   0.491534   0.505069   x
            x  Na           1         0.000000   0.301230   0.250000   x
            x  Na           2         0.500000   0.801235   0.250000   x
            x  Na           3         0.000000   0.698770   0.750000   x
            x  Na           4         0.500000   0.198765   0.750000   x
            x  Al           1         0.000000   0.906276   0.250000   x
            x  Al           2         0.500000   0.406276   0.250000   x
            x  Al           3         0.000000   0.093724   0.750000   x
            x  Al           4         0.500000   0.593723   0.750000   x
            x  Si           1         0.290869   0.093825   0.228100   x
            x  Si           2         0.790871   0.593824   0.228106   x
            x  Si           3         0.709131   0.093825   0.271900   x
            x  Si           4         0.209129   0.593824   0.271894   x
            x  Si           5         0.709131   0.906175   0.771900   x
            x  Si           6         0.209129   0.406176   0.771894   x
            x  Si           7         0.290869   0.906175   0.728100   x
            x  Si           8         0.790871   0.406176   0.728106   x
            xxxxxxxxxxxxxxxxxxxxxxxxxxxxxxxxxxxxxxxxxxxxxxxxxxxxxxxxxxxx
 
 
                         No user defined ionic velocities
 
                           -------------------------------
                                   Details of Species
                           -------------------------------
 
                               Mass of species in AMU
                                    O   15.9994000
                                    Na   22.9897700
                                    Al   26.9815400
                                    Si   28.0855000
 
                          Electric Quadrupole Moment (Barn)
                                    O   -0.0255800 Isotope 17
                                    Na    0.1040000 Isotope 23
                                    Al    0.1466000 Isotope 27
                                    Si    1.0000000 No Isotope Defined
 
                          Files used for pseudopotentials:
                                    O O_00PBE.usp
                                    Na Na_00PBE.usp
                                    Al Al_00PBE.usp
                                    Si Si_00PBE.usp
 
                           -------------------------------
                              k-Points For BZ Sampling
                           -------------------------------
                       MP grid size for SCF calculation is  2  2  3
                         Number of kpoints used = 3
 
             +++++++++++++++++++++++++++++++++++++++++++++++++++++++
             +  Number       Fractional coordinates        Weight  +
             +-----------------------------------------------------+
             +     1  -0.250000  -0.250000   0.333333   0.3333333  +
             +     2   0.250000   0.250000   0.000000   0.3333333  +
             +     3   0.250000   0.250000   0.333333   0.3333333  +
             +++++++++++++++++++++++++++++++++++++++++++++++++++++++
 
                           -------------------------------
                               Symmetry and Constraints
                           -------------------------------
 
                      Number of symmetry operations   = 4
                      Number of ionic constraints     = 3
                      Maximum deviation from symmetry = 0.173858E-14     ANG
               Point group of crystal =     5: C2h, 2/m, 2/m
           Set iprint > 1 for details on symmetry rotations/translations
 
                          Centre of mass is constrained
             Set iprint > 1 for details of linear ionic constraints
 
                         Number of cell constraints= 6
                         Cell constraints are:  0 0 0 0 0 0
 
                         External pressure/stress (GPa)
                          4.30000   0.00000   0.00000
                                    4.30000   0.00000
                                              4.30000
  
+---------------- MEMORY AND SCRATCH DISK ESTIMATES PER NODE -----------------+
|                                                     Memory          Disk    |
| Model and support data                               60.0 MB         0.0 MB |
| Electronic energy minimisation requirements          16.7 MB         0.0 MB |
|                                               ----------------------------- |
| Approx. total storage required per node              76.8 MB         0.0 MB |
|                                                                             |
| Requirements will fluctuate during execution and may exceed these estimates |
+-----------------------------------------------------------------------------+
------------------------------------------------------------------------ <-- SCF
SCF loop      Energy                           Energy gain       Timer   <-- SCF
                                               per atom          (sec)   <-- SCF
------------------------------------------------------------------------ <-- SCF
Initial  -1.64297833E+003                                          9.86  <-- SCF
      1  -1.65256971E+004                    3.72067969E+002      22.17  <-- SCF
      2  -1.68181470E+004                    7.31124652E+000      35.06  <-- SCF
      3  -1.68428072E+004                    6.16506900E-001      47.65  <-- SCF
      4  -1.68460498E+004                    8.10629953E-002      64.77  <-- SCF
      5  -1.68461121E+004                    1.55820686E-003      76.66  <-- SCF
      6  -1.68461128E+004                    1.76836982E-005      88.43  <-- SCF
      7  -1.68461128E+004                    3.50122919E-007     100.20  <-- SCF
      8  -1.68461128E+004                    1.02035426E-008     111.99  <-- SCF
      9  -1.68461128E+004                    3.12373863E-010     123.91  <-- SCF
     10  -1.68461128E+004                    9.20338939E-012     138.58  <-- SCF
------------------------------------------------------------------------ <-- SCF
 
Final energy =  -16846.11280036     eV
(energy not corrected for finite basis set)
 
 
Writing model to jadeite_4_30_GPa_cij__4__1.check
 
+---------------- MEMORY AND SCRATCH DISK ESTIMATES PER NODE -----------------+
|                                                     Memory          Disk    |
| Model and support data                               53.1 MB         0.0 MB |
| Geometry minimisation requirements                   19.5 MB         0.0 MB |
|                                               ----------------------------- |
| Approx. total storage required per node              72.6 MB         0.0 MB |
|                                                                             |
| Requirements will fluctuate during execution and may exceed these estimates |
+-----------------------------------------------------------------------------+
 
 
 *********************************** Forces ***********************************
 *                                                                            *
 *                        Cartesian components (eV/A)                         *
 * -------------------------------------------------------------------------- *
 *                   x                    y                    z              *
 *                                                                            *
 * O         1     -0.00474             -0.00495              0.00802         *
 * O         2     -0.00489             -0.00489              0.00799         *
 * O         3      0.00474             -0.00495             -0.00802         *
 * O         4      0.00489             -0.00489             -0.00799         *
 * O         5      0.00474              0.00495             -0.00802         *
 * O         6      0.00489              0.00489             -0.00799         *
 * O         7     -0.00474              0.00495              0.00802         *
 * O         8     -0.00489              0.00489              0.00799         *
 * O         9     -0.01396             -0.01227              0.01026         *
 * O        10     -0.01383             -0.01220              0.01027         *
 * O        11      0.01396             -0.01227             -0.01026         *
 * O        12      0.01383             -0.01220             -0.01027         *
 * O        13      0.01396              0.01227             -0.01026         *
 * O        14      0.01383              0.01220             -0.01027         *
 * O        15     -0.01396              0.01227              0.01026         *
 * O        16     -0.01383              0.01220              0.01027         *
 * O        17      0.00212             -0.03338             -0.06416         *
 * O        18      0.00207             -0.03332             -0.06420         *
 * O        19     -0.00212             -0.03338              0.06416         *
 * O        20     -0.00207             -0.03332              0.06420         *
 * O        21     -0.00212              0.03338              0.06416         *
 * O        22     -0.00207              0.03332              0.06420         *
 * O        23      0.00212              0.03338             -0.06416         *
 * O        24      0.00207              0.03332             -0.06420         *
 * Na        1      0.00000              0.00888              0.00000         *
 * Na        2      0.00000              0.00876              0.00000         *
 * Na        3      0.00000             -0.00888              0.00000         *
 * Na        4      0.00000             -0.00876              0.00000         *
 * Al        1      0.00000              0.01606              0.00000         *
 * Al        2      0.00000              0.01616              0.00000         *
 * Al        3      0.00000             -0.01606              0.00000         *
 * Al        4      0.00000             -0.01616              0.00000         *
 * Si        1     -0.00476              0.00586              0.05185         *
 * Si        2     -0.00497              0.00589              0.05183         *
 * Si        3      0.00476              0.00586             -0.05185         *
 * Si        4      0.00497              0.00589             -0.05183         *
 * Si        5      0.00476             -0.00586             -0.05185         *
 * Si        6      0.00497             -0.00589             -0.05183         *
 * Si        7     -0.00476             -0.00586              0.05185         *
 * Si        8     -0.00497             -0.00589              0.05183         *
 *                                                                            *
 ******************************************************************************
 BFGS: finished iteration     0 with enthalpy= -1.68353418E+004 eV
  
 +-----------+-----------------+-----------------+------------+-----+ <-- BFGS
 | Parameter |      value      |    tolerance    |    units   | OK? | <-- BFGS
 +-----------+-----------------+-----------------+------------+-----+ <-- BFGS
 |  dE/ion   |   0.000000E+000 |   2.000000E-007 |         eV | No  | <-- BFGS
 |  |F|max   |   7.235824E-002 |   1.000000E-003 |       eV/A | No  | <-- BFGS
 |  |dR|max  |   0.000000E+000 |   1.000000E-003 |          A | No  | <-- BFGS
 +-----------+-----------------+-----------------+------------+-----+ <-- BFGS
  

================================================================================
 Starting BFGS iteration          1 ...
================================================================================
 
Writing model to jadeite_4_30_GPa_cij__4__1.check
  
 +------------+-------------+-------------+-----------------+ <-- min BFGS
 |    Step    |   lambda    |   F.delta   |    enthalpy     | <-- min BFGS
 +------------+-------------+-------------+-----------------+ <-- min BFGS
 |  previous  |    0.000000 |    0.000012 |   -16835.341842 | <-- min BFGS
 +------------+-------------+-------------+-----------------+ <-- min BFGS
  

--------------------------------------------------------------------------------
 BFGS: starting iteration         1 with trial guess (lambda=  1.000000)
--------------------------------------------------------------------------------
 
                           -------------------------------
                                     Cell Contents
                           -------------------------------
 
            xxxxxxxxxxxxxxxxxxxxxxxxxxxxxxxxxxxxxxxxxxxxxxxxxxxxxxxxxxxx
            x  Element    Atom        Fractional coordinates of atoms  x
            x            Number           u          v          w      x
            x----------------------------------------------------------x
            x  O            1         0.109274   0.076950   0.129211   x
            x  O            2         0.609276   0.576949   0.129214   x
            x  O            3         0.890726   0.076950   0.370789   x
            x  O            4         0.390724   0.576949   0.370786   x
            x  O            5         0.890726   0.923050   0.870789   x
            x  O            6         0.390724   0.423051   0.870786   x
            x  O            7         0.109274   0.923050   0.629211   x
            x  O            8         0.609276   0.423051   0.629214   x
            x  O            9         0.361039   0.263740   0.295388   x
            x  O           10         0.861039   0.763740   0.295388   x
            x  O           11         0.638961   0.263740   0.204612   x
            x  O           12         0.138961   0.763740   0.204612   x
            x  O           13         0.638961   0.736260   0.704612   x
            x  O           14         0.138961   0.236260   0.704612   x
            x  O           15         0.361039   0.736260   0.795388   x
            x  O           16         0.861039   0.236260   0.795388   x
            x  O           17         0.354030   0.008451   1.005000   x
            x  O           18         0.854033   0.508447   1.005010   x
            x  O           19         0.645970   0.008451   0.495000   x
            x  O           20         0.145967   0.508447   0.494990   x
            x  O           21         0.645970   0.991549  -0.005000   x
            x  O           22         0.145967   0.491553  -0.005010   x
            x  O           23         0.354030   0.991549   0.505000   x
            x  O           24         0.854033   0.491553   0.505010   x
            x  Na           1         0.000000   0.301235   0.250000   x
            x  Na           2         0.500000   0.801239   0.250000   x
            x  Na           3         0.000000   0.698765   0.750000   x
            x  Na           4         0.500000   0.198761   0.750000   x
            x  Al           1         0.000000   0.906286   0.250000   x
            x  Al           2         0.500000   0.406286   0.250000   x
            x  Al           3         0.000000   0.093714   0.750000   x
            x  Al           4         0.500000   0.593714   0.750000   x
            x  Si           1         0.290866   0.093828   0.228147   x
            x  Si           2         0.790868   0.593827   0.228153   x
            x  Si           3         0.709134   0.093828   0.271853   x
            x  Si           4         0.209132   0.593827   0.271847   x
            x  Si           5         0.709134   0.906172   0.771853   x
            x  Si           6         0.209132   0.406173   0.771847   x
            x  Si           7         0.290866   0.906172   0.728147   x
            x  Si           8         0.790868   0.406173   0.728153   x
            xxxxxxxxxxxxxxxxxxxxxxxxxxxxxxxxxxxxxxxxxxxxxxxxxxxxxxxxxxxx
 
 
------------------------------------------------------------------------ <-- SCF
SCF loop      Energy                           Energy gain       Timer   <-- SCF
                                               per atom          (sec)   <-- SCF
------------------------------------------------------------------------ <-- SCF
Initial  -1.68461095E+004                                        179.00  <-- SCF
      1  -1.68461131E+004                    9.00910305E-005     191.09  <-- SCF
      2  -1.68461131E+004                    2.32881328E-008     203.14  <-- SCF
      3  -1.68461131E+004                    3.88630518E-010     215.11  <-- SCF
      4  -1.68461131E+004                    9.66742583E-012     227.47  <-- SCF
------------------------------------------------------------------------ <-- SCF
 
Final energy =  -16846.11308570     eV
(energy not corrected for finite basis set)
 
 
 *********************************** Forces ***********************************
 *                                                                            *
 *                        Cartesian components (eV/A)                         *
 * -------------------------------------------------------------------------- *
 *                   x                    y                    z              *
 *                                                                            *
 * O         1     -0.00479             -0.00460              0.00711         *
 * O         2     -0.00494             -0.00455              0.00707         *
 * O         3      0.00479             -0.00460             -0.00711         *
 * O         4      0.00494             -0.00455             -0.00707         *
 * O         5      0.00479              0.00460             -0.00711         *
 * O         6      0.00494              0.00455             -0.00707         *
 * O         7     -0.00479              0.00460              0.00711         *
 * O         8     -0.00494              0.00455              0.00707         *
 * O         9     -0.01133             -0.00752              0.00886         *
 * O        10     -0.01123             -0.00748              0.00887         *
 * O        11      0.01133             -0.00752             -0.00886         *
 * O        12      0.01123             -0.00748             -0.00887         *
 * O        13      0.01133              0.00752             -0.00886         *
 * O        14      0.01123              0.00748             -0.00887         *
 * O        15     -0.01133              0.00752              0.00886         *
 * O        16     -0.01123              0.00748              0.00887         *
 * O        17      0.00043             -0.02111             -0.04553         *
 * O        18      0.00036             -0.02104             -0.04557         *
 * O        19     -0.00043             -0.02111              0.04553         *
 * O        20     -0.00036             -0.02104              0.04557         *
 * O        21     -0.00043              0.02111              0.04553         *
 * O        22     -0.00036              0.02104              0.04557         *
 * O        23      0.00043              0.02111             -0.04553         *
 * O        24      0.00036              0.02104             -0.04557         *
 * Na        1      0.00000              0.00905              0.00000         *
 * Na        2      0.00000              0.00894              0.00000         *
 * Na        3      0.00000             -0.00905              0.00000         *
 * Na        4      0.00000             -0.00894              0.00000         *
 * Al        1      0.00000              0.01407              0.00000         *
 * Al        2      0.00000              0.01415              0.00000         *
 * Al        3      0.00000             -0.01407              0.00000         *
 * Al        4      0.00000             -0.01415              0.00000         *
 * Si        1     -0.00445              0.00186              0.03445         *
 * Si        2     -0.00462              0.00191              0.03444         *
 * Si        3      0.00445              0.00186             -0.03445         *
 * Si        4      0.00462              0.00191             -0.03444         *
 * Si        5      0.00445             -0.00186             -0.03445         *
 * Si        6      0.00462             -0.00191             -0.03444         *
 * Si        7     -0.00445             -0.00186              0.03445         *
 * Si        8     -0.00462             -0.00191              0.03444         *
 *                                                                            *
 ******************************************************************************
  
 +------------+-------------+-------------+-----------------+ <-- min BFGS
 |    Step    |   lambda    |   F.delta   |    enthalpy     | <-- min BFGS
 +------------+-------------+-------------+-----------------+ <-- min BFGS
 |  previous  |    0.000000 |    0.000012 |   -16835.341842 | <-- min BFGS
 | trial step |    1.000000 |    0.000009 |   -16835.342127 | <-- min BFGS
 +------------+-------------+-------------+-----------------+ <-- min BFGS
  

--------------------------------------------------------------------------------
 BFGS: improving iteration         1 with line minimization (lambda=  3.264289)
--------------------------------------------------------------------------------
 
                           -------------------------------
                                     Cell Contents
                           -------------------------------
 
            xxxxxxxxxxxxxxxxxxxxxxxxxxxxxxxxxxxxxxxxxxxxxxxxxxxxxxxxxxxx
            x  Element    Atom        Fractional coordinates of atoms  x
            x            Number           u          v          w      x
            x----------------------------------------------------------x
            x  O            1         0.109269   0.076944   0.129225   x
            x  O            2         0.609270   0.576942   0.129228   x
            x  O            3         0.890731   0.076944   0.370775   x
            x  O            4         0.390730   0.576942   0.370772   x
            x  O            5         0.890731   0.923056   0.870775   x
            x  O            6         0.390730   0.423058   0.870772   x
            x  O            7         0.109269   0.923056   0.629225   x
            x  O            8         0.609270   0.423058   0.629228   x
            x  O            9         0.361022   0.263724   0.295401   x
            x  O           10         0.861022   0.763725   0.295400   x
            x  O           11         0.638978   0.263724   0.204599   x
            x  O           12         0.138978   0.763725   0.204600   x
            x  O           13         0.638978   0.736276   0.704599   x
            x  O           14         0.138978   0.236275   0.704600   x
            x  O           15         0.361022   0.736276   0.795401   x
            x  O           16         0.861022   0.236275   0.795400   x
            x  O           17         0.354033   0.008408   1.004867   x
            x  O           18         0.854036   0.508405   1.004877   x
            x  O           19         0.645967   0.008408   0.495133   x
            x  O           20         0.145964   0.508405   0.495123   x
            x  O           21         0.645967   0.991592  -0.004867   x
            x  O           22         0.145964   0.491595  -0.004877   x
            x  O           23         0.354033   0.991592   0.504867   x
            x  O           24         0.854036   0.491595   0.504877   x
            x  Na           1         0.000000   0.301246   0.250000   x
            x  Na           2         0.500000   0.801251   0.250000   x
            x  Na           3         0.000000   0.698754   0.750000   x
            x  Na           4         0.500000   0.198749   0.750000   x
            x  Al           1         0.000000   0.906306   0.250000   x
            x  Al           2         0.500000   0.406306   0.250000   x
            x  Al           3         0.000000   0.093694   0.750000   x
            x  Al           4         0.500000   0.593694   0.750000   x
            x  Si           1         0.290861   0.093835   0.228252   x
            x  Si           2         0.790862   0.593834   0.228258   x
            x  Si           3         0.709139   0.093835   0.271748   x
            x  Si           4         0.209138   0.593834   0.271742   x
            x  Si           5         0.709139   0.906165   0.771748   x
            x  Si           6         0.209138   0.406166   0.771742   x
            x  Si           7         0.290861   0.906165   0.728252   x
            x  Si           8         0.790862   0.406166   0.728258   x
            xxxxxxxxxxxxxxxxxxxxxxxxxxxxxxxxxxxxxxxxxxxxxxxxxxxxxxxxxxxx
 
 
------------------------------------------------------------------------ <-- SCF
SCF loop      Energy                           Energy gain       Timer   <-- SCF
                                               per atom          (sec)   <-- SCF
------------------------------------------------------------------------ <-- SCF
Initial  -1.68461078E+004                                        235.91  <-- SCF
      1  -1.68461133E+004                    1.38765050E-004     247.60  <-- SCF
      2  -1.68461134E+004                    4.91734002E-008     259.37  <-- SCF
      3  -1.68461134E+004                    8.65195942E-010     271.94  <-- SCF
      4  -1.68461134E+004                    1.97215487E-011     285.56  <-- SCF
------------------------------------------------------------------------ <-- SCF
 
Final energy =  -16846.11335054     eV
(energy not corrected for finite basis set)
 
 
 *********************************** Forces ***********************************
 *                                                                            *
 *                        Cartesian components (eV/A)                         *
 * -------------------------------------------------------------------------- *
 *                   x                    y                    z              *
 *                                                                            *
 * O         1     -0.00489             -0.00382              0.00503         *
 * O         2     -0.00504             -0.00377              0.00500         *
 * O         3      0.00489             -0.00382             -0.00503         *
 * O         4      0.00504             -0.00377             -0.00500         *
 * O         5      0.00489              0.00382             -0.00503         *
 * O         6      0.00504              0.00377             -0.00500         *
 * O         7     -0.00489              0.00382              0.00503         *
 * O         8     -0.00504              0.00377              0.00500         *
 * O         9     -0.00537              0.00326              0.00567         *
 * O        10     -0.00533              0.00321              0.00568         *
 * O        11      0.00537              0.00326             -0.00567         *
 * O        12      0.00533              0.00321             -0.00568         *
 * O        13      0.00537             -0.00326             -0.00567         *
 * O        14      0.00533             -0.00321             -0.00568         *
 * O        15     -0.00537             -0.00326              0.00567         *
 * O        16     -0.00533             -0.00321              0.00568         *
 * O        17     -0.00331              0.00669             -0.00340         *
 * O        18     -0.00341              0.00675             -0.00345         *
 * O        19      0.00331              0.00669              0.00340         *
 * O        20      0.00341              0.00675              0.00345         *
 * O        21      0.00331             -0.00669              0.00340         *
 * O        22      0.00341             -0.00675              0.00345         *
 * O        23     -0.00331             -0.00669             -0.00340         *
 * O        24     -0.00341             -0.00675             -0.00345         *
 * Na        1      0.00000              0.00944              0.00000         *
 * Na        2      0.00000              0.00934              0.00000         *
 * Na        3      0.00000             -0.00944              0.00000         *
 * Na        4      0.00000             -0.00934              0.00000         *
 * Al        1      0.00000              0.00956              0.00000         *
 * Al        2      0.00000              0.00960              0.00000         *
 * Al        3      0.00000             -0.00956              0.00000         *
 * Al        4      0.00000             -0.00960              0.00000         *
 * Si        1     -0.00389             -0.00707             -0.00489         *
 * Si        2     -0.00395             -0.00697             -0.00490         *
 * Si        3      0.00389             -0.00707              0.00489         *
 * Si        4      0.00395             -0.00697              0.00490         *
 * Si        5      0.00389              0.00707              0.00489         *
 * Si        6      0.00395              0.00697              0.00490         *
 * Si        7     -0.00389              0.00707             -0.00489         *
 * Si        8     -0.00395              0.00697             -0.00490         *
 *                                                                            *
 ******************************************************************************
  
 +------------+-------------+-------------+-----------------+ <-- min BFGS
 |    Step    |   lambda    |   F.delta   |    enthalpy     | <-- min BFGS
 +------------+-------------+-------------+-----------------+ <-- min BFGS
 |  previous  |    0.000000 |    0.000012 |   -16835.341842 | <-- min BFGS
 | trial step |    1.000000 |    0.000009 |   -16835.342127 | <-- min BFGS
 |  line step |    3.264289 |    0.000000 |   -16835.342392 | <-- min BFGS
 +------------+-------------+-------------+-----------------+ <-- min BFGS
  
 BFGS: finished iteration     1 with enthalpy= -1.68353424E+004 eV
  
 +-----------+-----------------+-----------------+------------+-----+ <-- BFGS
 | Parameter |      value      |    tolerance    |    units   | OK? | <-- BFGS
 +-----------+-----------------+-----------------+------------+-----+ <-- BFGS
 |  dE/ion   |   1.375456E-005 |   2.000000E-007 |         eV | No  | <-- BFGS
 |  |F|max   |   9.602454E-003 |   1.000000E-003 |       eV/A | No  | <-- BFGS
 |  |dR|max  |   1.142323E-003 |   1.000000E-003 |          A | No  | <-- BFGS
 +-----------+-----------------+-----------------+------------+-----+ <-- BFGS
  

================================================================================
 Starting BFGS iteration          2 ...
================================================================================
 
Writing model to jadeite_4_30_GPa_cij__4__1.check
  
 +------------+-------------+-------------+-----------------+ <-- min BFGS
 |    Step    |   lambda    |   F.delta   |    enthalpy     | <-- min BFGS
 +------------+-------------+-------------+-----------------+ <-- min BFGS
 |  previous  |    0.000000 |    0.000001 |   -16835.342392 | <-- min BFGS
 +------------+-------------+-------------+-----------------+ <-- min BFGS
  

--------------------------------------------------------------------------------
 BFGS: starting iteration         2 with trial guess (lambda=  1.000000)
--------------------------------------------------------------------------------
 
                           -------------------------------
                                     Cell Contents
                           -------------------------------
 
            xxxxxxxxxxxxxxxxxxxxxxxxxxxxxxxxxxxxxxxxxxxxxxxxxxxxxxxxxxxx
            x  Element    Atom        Fractional coordinates of atoms  x
            x            Number           u          v          w      x
            x----------------------------------------------------------x
            x  O            1         0.109266   0.076942   0.129228   x
            x  O            2         0.609268   0.576940   0.129231   x
            x  O            3         0.890734   0.076942   0.370772   x
            x  O            4         0.390732   0.576940   0.370769   x
            x  O            5         0.890734   0.923058   0.870772   x
            x  O            6         0.390732   0.423060   0.870769   x
            x  O            7         0.109266   0.923058   0.629228   x
            x  O            8         0.609268   0.423060   0.629231   x
            x  O            9         0.361019   0.263725   0.295405   x
            x  O           10         0.861018   0.763726   0.295404   x
            x  O           11         0.638981   0.263725   0.204595   x
            x  O           12         0.138982   0.763726   0.204596   x
            x  O           13         0.638981   0.736275   0.704595   x
            x  O           14         0.138982   0.236274   0.704596   x
            x  O           15         0.361019   0.736275   0.795405   x
            x  O           16         0.861018   0.236274   0.795404   x
            x  O           17         0.354031   0.008411   1.004860   x
            x  O           18         0.854034   0.508408   1.004870   x
            x  O           19         0.645969   0.008411   0.495140   x
            x  O           20         0.145966   0.508408   0.495130   x
            x  O           21         0.645969   0.991589  -0.004860   x
            x  O           22         0.145966   0.491592  -0.004870   x
            x  O           23         0.354031   0.991589   0.504860   x
            x  O           24         0.854034   0.491592   0.504870   x
            x  Na           1         0.000000   0.301252   0.250000   x
            x  Na           2         0.500000   0.801256   0.250000   x
            x  Na           3         0.000000   0.698748   0.750000   x
            x  Na           4         0.500000   0.198744   0.750000   x
            x  Al           1         0.000000   0.906312   0.250000   x
            x  Al           2         0.500000   0.406312   0.250000   x
            x  Al           3         0.000000   0.093688   0.750000   x
            x  Al           4         0.500000   0.593688   0.750000   x
            x  Si           1         0.290858   0.093831   0.228249   x
            x  Si           2         0.790860   0.593831   0.228255   x
            x  Si           3         0.709142   0.093831   0.271751   x
            x  Si           4         0.209140   0.593831   0.271745   x
            x  Si           5         0.709142   0.906169   0.771751   x
            x  Si           6         0.209140   0.406169   0.771745   x
            x  Si           7         0.290858   0.906169   0.728249   x
            x  Si           8         0.790860   0.406169   0.728255   x
            xxxxxxxxxxxxxxxxxxxxxxxxxxxxxxxxxxxxxxxxxxxxxxxxxxxxxxxxxxxx
 
 
------------------------------------------------------------------------ <-- SCF
SCF loop      Energy                           Energy gain       Timer   <-- SCF
                                               per atom          (sec)   <-- SCF
------------------------------------------------------------------------ <-- SCF
Initial  -1.68461132E+004                                        307.72  <-- SCF
      1  -1.68461134E+004                    5.22243624E-006     319.67  <-- SCF
      2  -1.68461134E+004                    1.88630813E-009     331.51  <-- SCF
      3  -1.68461134E+004                    2.29698038E-011     345.21  <-- SCF
------------------------------------------------------------------------ <-- SCF
 
Final energy =  -16846.11336471     eV
(energy not corrected for finite basis set)
 
 
 *********************************** Forces ***********************************
 *                                                                            *
 *                        Cartesian components (eV/A)                         *
 * -------------------------------------------------------------------------- *
 *                   x                    y                    z              *
 *                                                                            *
 * O         1     -0.00440             -0.00359              0.00472         *
 * O         2     -0.00453             -0.00354              0.00469         *
 * O         3      0.00440             -0.00359             -0.00472         *
 * O         4      0.00453             -0.00354             -0.00469         *
 * O         5      0.00440              0.00359             -0.00472         *
 * O         6      0.00453              0.00354             -0.00469         *
 * O         7     -0.00440              0.00359              0.00472         *
 * O         8     -0.00453              0.00354              0.00469         *
 * O         9     -0.00549              0.00227              0.00520         *
 * O        10     -0.00545              0.00224              0.00522         *
 * O        11      0.00549              0.00227             -0.00520         *
 * O        12      0.00545              0.00224             -0.00522         *
 * O        13      0.00549             -0.00227             -0.00520         *
 * O        14      0.00545             -0.00224             -0.00522         *
 * O        15     -0.00549             -0.00227              0.00520         *
 * O        16     -0.00545             -0.00224              0.00522         *
 * O        17     -0.00303              0.00685             -0.00320         *
 * O        18     -0.00314              0.00690             -0.00325         *
 * O        19      0.00303              0.00685              0.00320         *
 * O        20      0.00314              0.00690              0.00325         *
 * O        21      0.00303             -0.00685              0.00320         *
 * O        22      0.00314             -0.00690              0.00325         *
 * O        23     -0.00303             -0.00685             -0.00320         *
 * O        24     -0.00314             -0.00690             -0.00325         *
 * Na        1      0.00000              0.00919              0.00000         *
 * Na        2      0.00000              0.00909              0.00000         *
 * Na        3      0.00000             -0.00919              0.00000         *
 * Na        4      0.00000             -0.00909              0.00000         *
 * Al        1      0.00000              0.00851              0.00000         *
 * Al        2      0.00000              0.00855              0.00000         *
 * Al        3      0.00000             -0.00851              0.00000         *
 * Al        4      0.00000             -0.00855              0.00000         *
 * Si        1     -0.00368             -0.00498             -0.00476         *
 * Si        2     -0.00376             -0.00491             -0.00478         *
 * Si        3      0.00368             -0.00498              0.00476         *
 * Si        4      0.00376             -0.00491              0.00478         *
 * Si        5      0.00368              0.00498              0.00476         *
 * Si        6      0.00376              0.00491              0.00478         *
 * Si        7     -0.00368              0.00498             -0.00476         *
 * Si        8     -0.00376              0.00491             -0.00478         *
 *                                                                            *
 ******************************************************************************
  
 +------------+-------------+-------------+-----------------+ <-- min BFGS
 |    Step    |   lambda    |   F.delta   |    enthalpy     | <-- min BFGS
 +------------+-------------+-------------+-----------------+ <-- min BFGS
 |  previous  |    0.000000 |    0.000001 |   -16835.342392 | <-- min BFGS
 | trial step |    1.000000 |    0.000000 |   -16835.342406 | <-- min BFGS
 +------------+-------------+-------------+-----------------+ <-- min BFGS
  

--------------------------------------------------------------------------------
 BFGS: improving iteration         2 with line minimization (lambda= 11.575579)
--------------------------------------------------------------------------------
 
                           -------------------------------
                                     Cell Contents
                           -------------------------------
 
            xxxxxxxxxxxxxxxxxxxxxxxxxxxxxxxxxxxxxxxxxxxxxxxxxxxxxxxxxxxx
            x  Element    Atom        Fractional coordinates of atoms  x
            x            Number           u          v          w      x
            x----------------------------------------------------------x
            x  O            1         0.109237   0.076917   0.129266   x
            x  O            2         0.609238   0.576916   0.129268   x
            x  O            3         0.890763   0.076917   0.370734   x
            x  O            4         0.390762   0.576916   0.370732   x
            x  O            5         0.890763   0.923083   0.870734   x
            x  O            6         0.390762   0.423084   0.870732   x
            x  O            7         0.109237   0.923083   0.629266   x
            x  O            8         0.609238   0.423084   0.629268   x
            x  O            9         0.360985   0.263742   0.295447   x
            x  O           10         0.860984   0.763742   0.295446   x
            x  O           11         0.639015   0.263742   0.204553   x
            x  O           12         0.139016   0.763742   0.204554   x
            x  O           13         0.639015   0.736258   0.704553   x
            x  O           14         0.139016   0.236258   0.704554   x
            x  O           15         0.360985   0.736258   0.795447   x
            x  O           16         0.860984   0.236258   0.795446   x
            x  O           17         0.354013   0.008442   1.004788   x
            x  O           18         0.854015   0.508439   1.004797   x
            x  O           19         0.645987   0.008442   0.495212   x
            x  O           20         0.145985   0.508439   0.495203   x
            x  O           21         0.645987   0.991558  -0.004788   x
            x  O           22         0.145985   0.491561  -0.004797   x
            x  O           23         0.354013   0.991558   0.504788   x
            x  O           24         0.854015   0.491561   0.504797   x
            x  Na           1         0.000000   0.301311   0.250000   x
            x  Na           2         0.500000   0.801314   0.250000   x
            x  Na           3         0.000000   0.698689   0.750000   x
            x  Na           4         0.500000   0.198686   0.750000   x
            x  Al           1         0.000000   0.906374   0.250000   x
            x  Al           2         0.500000   0.406374   0.250000   x
            x  Al           3         0.000000   0.093626   0.750000   x
            x  Al           4         0.500000   0.593626   0.750000   x
            x  Si           1         0.290835   0.093791   0.228212   x
            x  Si           2         0.790836   0.593791   0.228217   x
            x  Si           3         0.709165   0.093791   0.271788   x
            x  Si           4         0.209164   0.593791   0.271783   x
            x  Si           5         0.709165   0.906209   0.771788   x
            x  Si           6         0.209164   0.406209   0.771783   x
            x  Si           7         0.290835   0.906209   0.728212   x
            x  Si           8         0.790836   0.406209   0.728217   x
            xxxxxxxxxxxxxxxxxxxxxxxxxxxxxxxxxxxxxxxxxxxxxxxxxxxxxxxxxxxx
 
 
------------------------------------------------------------------------ <-- SCF
SCF loop      Energy                           Energy gain       Timer   <-- SCF
                                               per atom          (sec)   <-- SCF
------------------------------------------------------------------------ <-- SCF
Initial  -1.68461100E+004                                        350.41  <-- SCF
      1  -1.68461134E+004                    8.46376825E-005     362.47  <-- SCF
      2  -1.68461134E+004                    3.81929059E-008     374.42  <-- SCF
      3  -1.68461134E+004                    2.32791614E-010     386.46  <-- SCF
      4  -1.68461134E+004                    4.87238262E-012     400.58  <-- SCF
------------------------------------------------------------------------ <-- SCF
 
Final energy =  -16846.11343595     eV
(energy not corrected for finite basis set)
 
 
 *********************************** Forces ***********************************
 *                                                                            *
 *                        Cartesian components (eV/A)                         *
 * -------------------------------------------------------------------------- *
 *                   x                    y                    z              *
 *                                                                            *
 * O         1      0.00081             -0.00113              0.00138         *
 * O         2      0.00090             -0.00105              0.00138         *
 * O         3     -0.00081             -0.00113             -0.00138         *
 * O         4     -0.00090             -0.00105             -0.00138         *
 * O         5     -0.00081              0.00113             -0.00138         *
 * O         6     -0.00090              0.00105             -0.00138         *
 * O         7      0.00081              0.00113              0.00138         *
 * O         8      0.00090              0.00105              0.00138         *
 * O         9     -0.00671             -0.00814              0.00022         *
 * O        10     -0.00662             -0.00803              0.00026         *
 * O        11      0.00671             -0.00814             -0.00022         *
 * O        12      0.00662             -0.00803             -0.00026         *
 * O        13      0.00671              0.00814             -0.00022         *
 * O        14      0.00662              0.00803             -0.00026         *
 * O        15     -0.00671              0.00814              0.00022         *
 * O        16     -0.00662              0.00803              0.00026         *
 * O        17     -0.00012              0.00852             -0.00099         *
 * O        18     -0.00024              0.00855             -0.00104         *
 * O        19      0.00012              0.00852              0.00099         *
 * O        20      0.00024              0.00855              0.00104         *
 * O        21      0.00012             -0.00852              0.00099         *
 * O        22      0.00024             -0.00855              0.00104         *
 * O        23     -0.00012             -0.00852             -0.00099         *
 * O        24     -0.00024             -0.00855             -0.00104         *
 * Na        1      0.00000              0.00653              0.00000         *
 * Na        2      0.00000              0.00643              0.00000         *
 * Na        3      0.00000             -0.00653              0.00000         *
 * Na        4      0.00000             -0.00643              0.00000         *
 * Al        1      0.00000             -0.00258              0.00000         *
 * Al        2      0.00000             -0.00258              0.00000         *
 * Al        3      0.00000              0.00258              0.00000         *
 * Al        4      0.00000              0.00258              0.00000         *
 * Si        1     -0.00158              0.01701             -0.00340         *
 * Si        2     -0.00179              0.01683             -0.00345         *
 * Si        3      0.00158              0.01701              0.00340         *
 * Si        4      0.00179              0.01683              0.00345         *
 * Si        5      0.00158             -0.01701              0.00340         *
 * Si        6      0.00179             -0.01683              0.00345         *
 * Si        7     -0.00158             -0.01701             -0.00340         *
 * Si        8     -0.00179             -0.01683             -0.00345         *
 *                                                                            *
 ******************************************************************************
  
 +------------+-------------+-------------+-----------------+ <-- min BFGS
 |    Step    |   lambda    |   F.delta   |    enthalpy     | <-- min BFGS
 +------------+-------------+-------------+-----------------+ <-- min BFGS
 |  previous  |    0.000000 |    0.000001 |   -16835.342392 | <-- min BFGS
 | trial step |    1.000000 |    0.000000 |   -16835.342406 | <-- min BFGS
 |  line step |   11.575579 |    0.000000 |   -16835.342477 | <-- min BFGS
 +------------+-------------+-------------+-----------------+ <-- min BFGS
  
 BFGS: finished iteration     2 with enthalpy= -1.68353425E+004 eV
  
 +-----------+-----------------+-----------------+------------+-----+ <-- BFGS
 | Parameter |      value      |    tolerance    |    units   | OK? | <-- BFGS
 +-----------+-----------------+-----------------+------------+-----+ <-- BFGS
 |  dE/ion   |   2.135192E-006 |   2.000000E-007 |         eV | No  | <-- BFGS
 |  |F|max   |   1.741791E-002 |   1.000000E-003 |       eV/A | No  | <-- BFGS
 |  |dR|max  |   5.793603E-004 |   1.000000E-003 |          A | Yes | <-- BFGS
 +-----------+-----------------+-----------------+------------+-----+ <-- BFGS
  

================================================================================
 Starting BFGS iteration          3 ...
================================================================================
 
Writing model to jadeite_4_30_GPa_cij__4__1.check
  
 +------------+-------------+-------------+-----------------+ <-- min BFGS
 |    Step    |   lambda    |   F.delta   |    enthalpy     | <-- min BFGS
 +------------+-------------+-------------+-----------------+ <-- min BFGS
 |  previous  |    0.000000 |    0.000001 |   -16835.342477 | <-- min BFGS
 +------------+-------------+-------------+-----------------+ <-- min BFGS
  

--------------------------------------------------------------------------------
 BFGS: starting iteration         3 with trial guess (lambda=  1.000000)
--------------------------------------------------------------------------------
 
                           -------------------------------
                                     Cell Contents
                           -------------------------------
 
            xxxxxxxxxxxxxxxxxxxxxxxxxxxxxxxxxxxxxxxxxxxxxxxxxxxxxxxxxxxx
            x  Element    Atom        Fractional coordinates of atoms  x
            x            Number           u          v          w      x
            x----------------------------------------------------------x
            x  O            1         0.109234   0.076914   0.129272   x
            x  O            2         0.609234   0.576913   0.129273   x
            x  O            3         0.890766   0.076914   0.370728   x
            x  O            4         0.390766   0.576913   0.370727   x
            x  O            5         0.890766   0.923086   0.870728   x
            x  O            6         0.390766   0.423087   0.870727   x
            x  O            7         0.109234   0.923086   0.629272   x
            x  O            8         0.609234   0.423087   0.629273   x
            x  O            9         0.360977   0.263739   0.295450   x
            x  O           10         0.860977   0.763739   0.295449   x
            x  O           11         0.639023   0.263739   0.204550   x
            x  O           12         0.139023   0.763739   0.204551   x
            x  O           13         0.639023   0.736261   0.704550   x
            x  O           14         0.139023   0.236261   0.704551   x
            x  O           15         0.360977   0.736261   0.795450   x
            x  O           16         0.860977   0.236261   0.795449   x
            x  O           17         0.354010   0.008451   1.004780   x
            x  O           18         0.854013   0.508448   1.004789   x
            x  O           19         0.645990   0.008451   0.495220   x
            x  O           20         0.145987   0.508448   0.495211   x
            x  O           21         0.645990   0.991549  -0.004780   x
            x  O           22         0.145987   0.491552  -0.004789   x
            x  O           23         0.354010   0.991549   0.504780   x
            x  O           24         0.854013   0.491552   0.504789   x
            x  Na           1         0.000000   0.301322   0.250000   x
            x  Na           2         0.500000   0.801325   0.250000   x
            x  Na           3         0.000000   0.698678   0.750000   x
            x  Na           4         0.500000   0.198675   0.750000   x
            x  Al           1         0.000000   0.906379   0.250000   x
            x  Al           2         0.500000   0.406380   0.250000   x
            x  Al           3         0.000000   0.093621   0.750000   x
            x  Al           4         0.500000   0.593620   0.750000   x
            x  Si           1         0.290831   0.093795   0.228203   x
            x  Si           2         0.790832   0.593795   0.228208   x
            x  Si           3         0.709169   0.093795   0.271797   x
            x  Si           4         0.209168   0.593795   0.271792   x
            x  Si           5         0.709169   0.906205   0.771797   x
            x  Si           6         0.209168   0.406205   0.771792   x
            x  Si           7         0.290831   0.906205   0.728203   x
            x  Si           8         0.790832   0.406205   0.728208   x
            xxxxxxxxxxxxxxxxxxxxxxxxxxxxxxxxxxxxxxxxxxxxxxxxxxxxxxxxxxxx
 
 
------------------------------------------------------------------------ <-- SCF
SCF loop      Energy                           Energy gain       Timer   <-- SCF
                                               per atom          (sec)   <-- SCF
------------------------------------------------------------------------ <-- SCF
Initial  -1.68461133E+004                                        406.70  <-- SCF
      1  -1.68461135E+004                    3.36263596E-006     418.60  <-- SCF
      2  -1.68461135E+004                    1.60108040E-009     430.47  <-- SCF
      3  -1.68461135E+004                    1.06728381E-011     442.31  <-- SCF
------------------------------------------------------------------------ <-- SCF
 
Final energy =  -16846.11345401     eV
(energy not corrected for finite basis set)
 
 
 *********************************** Forces ***********************************
 *                                                                            *
 *                        Cartesian components (eV/A)                         *
 * -------------------------------------------------------------------------- *
 *                   x                    y                    z              *
 *                                                                            *
 * O         1      0.00083             -0.00054              0.00075         *
 * O         2      0.00091             -0.00046              0.00075         *
 * O         3     -0.00083             -0.00054             -0.00075         *
 * O         4     -0.00091             -0.00046             -0.00075         *
 * O         5     -0.00083              0.00054             -0.00075         *
 * O         6     -0.00091              0.00046             -0.00075         *
 * O         7      0.00083              0.00054              0.00075         *
 * O         8      0.00091              0.00046              0.00075         *
 * O         9     -0.00503             -0.00571             -0.00019         *
 * O        10     -0.00498             -0.00565             -0.00016         *
 * O        11      0.00503             -0.00571              0.00019         *
 * O        12      0.00498             -0.00565              0.00016         *
 * O        13      0.00503              0.00571              0.00019         *
 * O        14      0.00498              0.00565              0.00016         *
 * O        15     -0.00503              0.00571             -0.00019         *
 * O        16     -0.00498              0.00565             -0.00016         *
 * O        17     -0.00045              0.00769             -0.00210         *
 * O        18     -0.00057              0.00772             -0.00215         *
 * O        19      0.00045              0.00769              0.00210         *
 * O        20      0.00057              0.00772              0.00215         *
 * O        21      0.00045             -0.00769              0.00210         *
 * O        22      0.00057             -0.00772              0.00215         *
 * O        23     -0.00045             -0.00769             -0.00210         *
 * O        24     -0.00057             -0.00772             -0.00215         *
 * Na        1      0.00000              0.00648              0.00000         *
 * Na        2      0.00000              0.00639              0.00000         *
 * Na        3      0.00000             -0.00648              0.00000         *
 * Na        4      0.00000             -0.00639              0.00000         *
 * Al        1      0.00000             -0.00361              0.00000         *
 * Al        2      0.00000             -0.00363              0.00000         *
 * Al        3      0.00000              0.00361              0.00000         *
 * Al        4      0.00000              0.00363              0.00000         *
 * Si        1     -0.00153              0.01419             -0.00224         *
 * Si        2     -0.00167              0.01406             -0.00229         *
 * Si        3      0.00153              0.01419              0.00224         *
 * Si        4      0.00167              0.01406              0.00229         *
 * Si        5      0.00153             -0.01419              0.00224         *
 * Si        6      0.00167             -0.01406              0.00229         *
 * Si        7     -0.00153             -0.01419             -0.00224         *
 * Si        8     -0.00167             -0.01406             -0.00229         *
 *                                                                            *
 ******************************************************************************
  
 +------------+-------------+-------------+-----------------+ <-- min BFGS
 |    Step    |   lambda    |   F.delta   |    enthalpy     | <-- min BFGS
 +------------+-------------+-------------+-----------------+ <-- min BFGS
 |  previous  |    0.000000 |    0.000001 |   -16835.342477 | <-- min BFGS
 | trial step |    1.000000 |    0.000001 |   -16835.342496 | <-- min BFGS
 +------------+-------------+-------------+-----------------+ <-- min BFGS
  

--------------------------------------------------------------------------------
 BFGS: improving iteration         3 with line minimization (lambda=  5.875335)
--------------------------------------------------------------------------------
 
                           -------------------------------
                                     Cell Contents
                           -------------------------------
 
            xxxxxxxxxxxxxxxxxxxxxxxxxxxxxxxxxxxxxxxxxxxxxxxxxxxxxxxxxxxx
            x  Element    Atom        Fractional coordinates of atoms  x
            x            Number           u          v          w      x
            x----------------------------------------------------------x
            x  O            1         0.109219   0.076897   0.129300   x
            x  O            2         0.609219   0.576896   0.129302   x
            x  O            3         0.890781   0.076897   0.370700   x
            x  O            4         0.390781   0.576896   0.370698   x
            x  O            5         0.890781   0.923103   0.870700   x
            x  O            6         0.390781   0.423104   0.870698   x
            x  O            7         0.109219   0.923103   0.629300   x
            x  O            8         0.609219   0.423104   0.629302   x
            x  O            9         0.360940   0.263727   0.295466   x
            x  O           10         0.860940   0.763727   0.295466   x
            x  O           11         0.639060   0.263727   0.204534   x
            x  O           12         0.139060   0.763727   0.204534   x
            x  O           13         0.639060   0.736273   0.704534   x
            x  O           14         0.139060   0.236273   0.704534   x
            x  O           15         0.360940   0.736273   0.795466   x
            x  O           16         0.860940   0.236273   0.795466   x
            x  O           17         0.353999   0.008494   1.004738   x
            x  O           18         0.854001   0.508491   1.004746   x
            x  O           19         0.646001   0.008494   0.495262   x
            x  O           20         0.145999   0.508491   0.495254   x
            x  O           21         0.646001   0.991506  -0.004738   x
            x  O           22         0.145999   0.491509  -0.004746   x
            x  O           23         0.353999   0.991506   0.504738   x
            x  O           24         0.854001   0.491509   0.504746   x
            x  Na           1         0.000000   0.301374   0.250000   x
            x  Na           2         0.500000   0.801376   0.250000   x
            x  Na           3         0.000000   0.698626   0.750000   x
            x  Na           4         0.500000   0.198624   0.750000   x
            x  Al           1         0.000000   0.906408   0.250000   x
            x  Al           2         0.500000   0.406408   0.250000   x
            x  Al           3         0.000000   0.093592   0.750000   x
            x  Al           4         0.500000   0.593592   0.750000   x
            x  Si           1         0.290814   0.093818   0.228159   x
            x  Si           2         0.790814   0.593817   0.228163   x
            x  Si           3         0.709186   0.093818   0.271841   x
            x  Si           4         0.209186   0.593817   0.271837   x
            x  Si           5         0.709186   0.906182   0.771841   x
            x  Si           6         0.209186   0.406183   0.771837   x
            x  Si           7         0.290814   0.906182   0.728159   x
            x  Si           8         0.790814   0.406183   0.728163   x
            xxxxxxxxxxxxxxxxxxxxxxxxxxxxxxxxxxxxxxxxxxxxxxxxxxxxxxxxxxxx
 
 
------------------------------------------------------------------------ <-- SCF
SCF loop      Energy                           Energy gain       Timer   <-- SCF
                                               per atom          (sec)   <-- SCF
------------------------------------------------------------------------ <-- SCF
Initial  -1.68461112E+004                                        447.49  <-- SCF
      1  -1.68461135E+004                    5.71728940E-005     459.44  <-- SCF
      2  -1.68461135E+004                    2.25011270E-008     471.37  <-- SCF
      3  -1.68461135E+004                    1.63031469E-010     483.32  <-- SCF
      4  -1.68461135E+004                    3.40293389E-012     497.08  <-- SCF
------------------------------------------------------------------------ <-- SCF
 
Final energy =  -16846.11349374     eV
(energy not corrected for finite basis set)
 
 
 *********************************** Forces ***********************************
 *                                                                            *
 *                        Cartesian components (eV/A)                         *
 * -------------------------------------------------------------------------- *
 *                   x                    y                    z              *
 *                                                                            *
 * O         1      0.00099              0.00236             -0.00234         *
 * O         2      0.00095              0.00238             -0.00233         *
 * O         3     -0.00099              0.00236              0.00234         *
 * O         4     -0.00095              0.00238              0.00233         *
 * O         5     -0.00099             -0.00236              0.00234         *
 * O         6     -0.00095             -0.00238              0.00233         *
 * O         7      0.00099             -0.00236             -0.00234         *
 * O         8      0.00095             -0.00238             -0.00233         *
 * O         9      0.00315              0.00614             -0.00225         *
 * O        10      0.00304              0.00595             -0.00223         *
 * O        11     -0.00315              0.00614              0.00225         *
 * O        12     -0.00304              0.00595              0.00223         *
 * O        13     -0.00315             -0.00614              0.00225         *
 * O        14     -0.00304             -0.00595              0.00223         *
 * O        15      0.00315             -0.00614             -0.00225         *
 * O        16      0.00304             -0.00595             -0.00223         *
 * O        17     -0.00201              0.00364             -0.00747         *
 * O        18     -0.00214              0.00365             -0.00752         *
 * O        19      0.00201              0.00364              0.00747         *
 * O        20      0.00214              0.00365              0.00752         *
 * O        21      0.00201             -0.00364              0.00747         *
 * O        22      0.00214             -0.00365              0.00752         *
 * O        23     -0.00201             -0.00364             -0.00747         *
 * O        24     -0.00214             -0.00365             -0.00752         *
 * Na        1      0.00000              0.00611              0.00000         *
 * Na        2      0.00000              0.00607              0.00000         *
 * Na        3      0.00000             -0.00611              0.00000         *
 * Na        4      0.00000             -0.00607              0.00000         *
 * Al        1      0.00000             -0.00864              0.00000         *
 * Al        2      0.00000             -0.00874              0.00000         *
 * Al        3      0.00000              0.00864              0.00000         *
 * Al        4      0.00000              0.00874              0.00000         *
 * Si        1     -0.00126              0.00044              0.00338         *
 * Si        2     -0.00110              0.00057              0.00336         *
 * Si        3      0.00126              0.00044             -0.00338         *
 * Si        4      0.00110              0.00057             -0.00336         *
 * Si        5      0.00126             -0.00044             -0.00338         *
 * Si        6      0.00110             -0.00057             -0.00336         *
 * Si        7     -0.00126             -0.00044              0.00338         *
 * Si        8     -0.00110             -0.00057              0.00336         *
 *                                                                            *
 ******************************************************************************
  
 +------------+-------------+-------------+-----------------+ <-- min BFGS
 |    Step    |   lambda    |   F.delta   |    enthalpy     | <-- min BFGS
 +------------+-------------+-------------+-----------------+ <-- min BFGS
 |  previous  |    0.000000 |    0.000001 |   -16835.342477 | <-- min BFGS
 | trial step |    1.000000 |    0.000001 |   -16835.342496 | <-- min BFGS
 |  line step |    5.875335 |    0.000000 |   -16835.342535 | <-- min BFGS
 +------------+-------------+-------------+-----------------+ <-- min BFGS
  
 BFGS: finished iteration     3 with enthalpy= -1.68353425E+004 eV
  
 +-----------+-----------------+-----------------+------------+-----+ <-- BFGS
 | Parameter |      value      |    tolerance    |    units   | OK? | <-- BFGS
 +-----------+-----------------+-----------------+------------+-----+ <-- BFGS
 |  dE/ion   |   1.444893E-006 |   2.000000E-007 |         eV | No  | <-- BFGS
 |  |F|max   |   8.738490E-003 |   1.000000E-003 |       eV/A | No  | <-- BFGS
 |  |dR|max  |   5.382006E-004 |   1.000000E-003 |          A | Yes | <-- BFGS
 +-----------+-----------------+-----------------+------------+-----+ <-- BFGS
  

================================================================================
 Starting BFGS iteration          4 ...
================================================================================
 
Writing model to jadeite_4_30_GPa_cij__4__1.check
  
 +------------+-------------+-------------+-----------------+ <-- min BFGS
 |    Step    |   lambda    |   F.delta   |    enthalpy     | <-- min BFGS
 +------------+-------------+-------------+-----------------+ <-- min BFGS
[...]
            x  O           20         0.146064   0.508864   0.495958   x
            x  O           21         0.646064   0.991136  -0.004041   x
            x  O           22         0.146064   0.491136  -0.004042   x
            x  O           23         0.353936   0.991136   0.504041   x
            x  O           24         0.853936   0.491136   0.504042   x
            x  Na           1         0.000000   0.301685   0.250000   x
            x  Na           2         0.500000   0.801685   0.250000   x
            x  Na           3         0.000000   0.698315   0.750000   x
            x  Na           4         0.500000   0.198315   0.750000   x
            x  Al           1         0.000000   0.906325   0.250000   x
            x  Al           2         0.500000   0.406325   0.250000   x
            x  Al           3         0.000000   0.093675   0.750000   x
            x  Al           4         0.500000   0.593675   0.750000   x
            x  Si           1         0.290784   0.093840   0.227885   x
            x  Si           2         0.790784   0.593839   0.227885   x
            x  Si           3         0.709216   0.093840   0.272115   x
            x  Si           4         0.209216   0.593839   0.272115   x
            x  Si           5         0.709216   0.906160   0.772115   x
            x  Si           6         0.209216   0.406161   0.772115   x
            x  Si           7         0.290784   0.906160   0.727885   x
            x  Si           8         0.790784   0.406161   0.727885   x
            xxxxxxxxxxxxxxxxxxxxxxxxxxxxxxxxxxxxxxxxxxxxxxxxxxxxxxxxxxxx
 
 
 BFGS: Final Enthalpy     = -1.68353427E+004 eV
 BFGS: Final <frequency>  =    1011.16309 cm-1
 
 ***************************** Symmetrised Forces *****************************
 *                                                                            *
 *                        Cartesian components (eV/A)                         *
 * -------------------------------------------------------------------------- *
 *                   x                    y                    z              *
 *                                                                            *
 * O         1     -0.00010             -0.00003             -0.00010         *
 * O         2     -0.00026             -0.00005             -0.00010         *
 * O         3      0.00010             -0.00003              0.00010         *
 * O         4      0.00026             -0.00005              0.00010         *
 * O         5      0.00010              0.00003              0.00010         *
 * O         6      0.00026              0.00005              0.00010         *
 * O         7     -0.00010              0.00003             -0.00010         *
 * O         8     -0.00026              0.00005             -0.00010         *
 * O         9     -0.00002              0.00016              0.00000         *
 * O        10     -0.00014             -0.00004              0.00001         *
 * O        11      0.00002              0.00016              0.00000         *
 * O        12      0.00014             -0.00004             -0.00001         *
 * O        13      0.00002             -0.00016              0.00000         *
 * O        14      0.00014              0.00004             -0.00001         *
 * O        15     -0.00002             -0.00016              0.00000         *
 * O        16     -0.00014              0.00004              0.00001         *
 * O        17      0.00039              0.00018             -0.00003         *
 * O        18      0.00033              0.00011             -0.00013         *
 * O        19     -0.00039              0.00018              0.00003         *
 * O        20     -0.00033              0.00011              0.00013         *
 * O        21     -0.00039             -0.00018              0.00003         *
 * O        22     -0.00033             -0.00011              0.00013         *
 * O        23      0.00039             -0.00018             -0.00003         *
 * O        24      0.00033             -0.00011             -0.00013         *
 * Na        1      0.00000             -0.00005              0.00000         *
 * Na        2      0.00000             -0.00005              0.00000         *
 * Na        3      0.00000              0.00005              0.00000         *
 * Na        4      0.00000              0.00005              0.00000         *
 * Al        1      0.00000              0.00011              0.00000         *
 * Al        2      0.00000              0.00005              0.00000         *
 * Al        3      0.00000             -0.00011              0.00000         *
 * Al        4      0.00000             -0.00005              0.00000         *
 * Si        1     -0.00011             -0.00015              0.00010         *
 * Si        2      0.00017              0.00004              0.00021         *
 * Si        3      0.00011             -0.00015             -0.00010         *
 * Si        4     -0.00017              0.00004             -0.00021         *
 * Si        5      0.00011              0.00015             -0.00010         *
 * Si        6     -0.00017             -0.00004             -0.00021         *
 * Si        7     -0.00011              0.00015              0.00010         *
 * Si        8      0.00017             -0.00004              0.00021         *
 *                                                                            *
 ******************************************************************************
 
 *********** Symmetrised Stress Tensor ***********
 *                                               *
 *          Cartesian components (GPa)           *
 * --------------------------------------------- *
 *             x             y             z     *
 *                                               *
 *  x     -4.055034      0.000000      0.251464  *
 *  y      0.000000     -4.011200      0.000000  *
 *  z      0.251464      0.000000     -3.952854  *
 *                                               *
 *  Pressure:    4.0064                          *
 *                                               *
 *************************************************
 
 Pseudo atomic calculation performed for O 2s2 2p4
 
 Converged in 36 iterations to a total energy of -429.6485 eV
 
 
 Pseudo atomic calculation performed for Na 2s2 2p6 3s1
 
 Converged in 33 iterations to a total energy of -1302.8467 eV
 
 
 Pseudo atomic calculation performed for Al 3s2 3p1
 
 Converged in 20 iterations to a total energy of -52.7392 eV
 
 
 Pseudo atomic calculation performed for Si 3s2 3p2
 
 Converged in 21 iterations to a total energy of -101.9044 eV
 
Charge spilling parameter for spin component 1 = 0.85%
 
     Atomic Populations (Mulliken)
     -----------------------------
Species   Ion     s      p      d      f     Total  Charge (e)
==============================================================
  O        1     1.85   5.24   0.00   0.00   7.08    -1.08
  O        2     1.85   5.24   0.00   0.00   7.08    -1.08
  O        3     1.85   5.24   0.00   0.00   7.08    -1.08
  O        4     1.85   5.24   0.00   0.00   7.08    -1.08
  O        5     1.85   5.24   0.00   0.00   7.08    -1.08
  O        6     1.85   5.24   0.00   0.00   7.08    -1.08
  O        7     1.85   5.24   0.00   0.00   7.08    -1.08
  O        8     1.85   5.24   0.00   0.00   7.08    -1.08
  O        9     1.84   5.29   0.00   0.00   7.12    -1.12
  O       10     1.84   5.29   0.00   0.00   7.12    -1.12
  O       11     1.84   5.29   0.00   0.00   7.12    -1.12
  O       12     1.84   5.29   0.00   0.00   7.12    -1.12
  O       13     1.84   5.29   0.00   0.00   7.12    -1.12
  O       14     1.84   5.29   0.00   0.00   7.12    -1.12
  O       15     1.84   5.29   0.00   0.00   7.12    -1.12
  O       16     1.84   5.29   0.00   0.00   7.12    -1.12
  O       17     1.83   5.30   0.00   0.00   7.12    -1.12
  O       18     1.83   5.30   0.00   0.00   7.12    -1.12
  O       19     1.83   5.30   0.00   0.00   7.12    -1.12
  O       20     1.83   5.30   0.00   0.00   7.12    -1.12
  O       21     1.83   5.30   0.00   0.00   7.12    -1.12
  O       22     1.83   5.30   0.00   0.00   7.12    -1.12
  O       23     1.83   5.30   0.00   0.00   7.12    -1.12
  O       24     1.83   5.30   0.00   0.00   7.12    -1.12
  Na       1     2.04   5.77   0.00   0.00   7.81     1.19
  Na       2     2.04   5.77   0.00   0.00   7.81     1.19
  Na       3     2.04   5.77   0.00   0.00   7.81     1.19
  Na       4     2.04   5.77   0.00   0.00   7.81     1.19
  Al       1     0.51   0.92   0.00   0.00   1.42     1.58
  Al       2     0.51   0.92   0.00   0.00   1.42     1.58
  Al       3     0.51   0.92   0.00   0.00   1.42     1.58
  Al       4     0.51   0.92   0.00   0.00   1.42     1.58
  Si       1     0.69   1.36   0.00   0.00   2.05     1.95
  Si       2     0.69   1.36   0.00   0.00   2.05     1.95
  Si       3     0.69   1.36   0.00   0.00   2.05     1.95
  Si       4     0.69   1.36   0.00   0.00   2.05     1.95
  Si       5     0.69   1.36   0.00   0.00   2.05     1.95
  Si       6     0.69   1.36   0.00   0.00   2.05     1.95
  Si       7     0.69   1.36   0.00   0.00   2.05     1.95
  Si       8     0.69   1.36   0.00   0.00   2.05     1.95
==============================================================
 
     Bond                     Population      Length (A)
============================================================
   O 011 --   Si 003               0.76        1.59263
   O 009 --   Si 001               0.76        1.59263
   O 013 --   Si 005               0.76        1.59263
   O 015 --   Si 007               0.76        1.59263
   O 014 --   Si 006               0.76        1.59264
   O 016 --   Si 008               0.76        1.59264
   O 012 --   Si 004               0.76        1.59264
   O 010 --   Si 002               0.76        1.59264
   O 018 --   Si 002               0.56        1.63091
   O 024 --   Si 008               0.56        1.63091
   O 020 --   Si 004               0.56        1.63091
   O 022 --   Si 006               0.56        1.63091
   O 019 --   Si 003               0.56        1.63091
   O 021 --   Si 005               0.56        1.63091
   O 023 --   Si 007               0.56        1.63091
   O 017 --   Si 001               0.56        1.63091
   O 002 --   Si 002               0.59        1.63725
   O 008 --   Si 008               0.59        1.63725
   O 004 --   Si 004               0.59        1.63725
   O 006 --   Si 006               0.59        1.63725
   O 003 --   Si 003               0.59        1.63726
   O 005 --   Si 005               0.59        1.63726
   O 001 --   Si 001               0.59        1.63726
   O 007 --   Si 007               0.59        1.63726
   O 021 --   Si 003               0.58        1.64157
   O 023 --   Si 001               0.58        1.64157
   O 017 --   Si 007               0.58        1.64157
   O 019 --   Si 005               0.58        1.64157
   O 022 --   Si 004               0.58        1.64158
   O 024 --   Si 002               0.58        1.64158
   O 020 --   Si 006               0.58        1.64158
   O 018 --   Si 008               0.58        1.64158
   O 012 --   Al 001               0.42        1.85540
   O 010 --   Al 001               0.42        1.85540
   O 014 --   Al 003               0.42        1.85540
   O 016 --   Al 003               0.42        1.85540
   O 015 --   Al 004               0.42        1.85540
   O 013 --   Al 004               0.42        1.85540
   O 009 --   Al 002               0.42        1.85540
   O 011 --   Al 002               0.42        1.85540
   O 005 --   Al 001               0.32        1.94530
   O 007 --   Al 001               0.32        1.94530
   O 001 --   Al 003               0.32        1.94530
   O 003 --   Al 003               0.32        1.94530
   O 006 --   Al 002               0.32        1.94530
   O 004 --   Al 004               0.32        1.94530
   O 002 --   Al 004               0.32        1.94530
   O 008 --   Al 002               0.32        1.94530
   O 006 --   Al 004               0.31        1.99295
   O 008 --   Al 004               0.31        1.99295
   O 004 --   Al 002               0.31        1.99295
   O 002 --   Al 002               0.31        1.99295
   O 007 --   Al 003               0.31        1.99296
   O 005 --   Al 003               0.31        1.99296
   O 001 --   Al 001               0.31        1.99296
   O 003 --   Al 001               0.31        1.99296
   O 001 --   Na 001              -0.01        2.35349
   O 003 --   Na 001              -0.01        2.35349
   O 007 --   Na 003              -0.01        2.35349
   O 005 --   Na 003              -0.01        2.35349
   O 004 --   Na 002              -0.01        2.35349
   O 002 --   Na 002              -0.01        2.35349
   O 006 --   Na 004              -0.01        2.35349
   O 008 --   Na 004              -0.01        2.35349
   O 022 --   Na 003              -0.04        2.37337
   O 024 --   Na 003              -0.04        2.37337
   O 020 --   Na 001              -0.04        2.37337
   O 018 --   Na 001              -0.04        2.37337
   O 023 --   Na 004              -0.04        2.37337
   O 021 --   Na 004              -0.04        2.37337
   O 017 --   Na 002              -0.04        2.37337
   O 019 --   Na 002              -0.04        2.37337
   O 016 --   Na 001              -0.05        2.40925
   O 014 --   Na 001              -0.05        2.40925
   O 012 --   Na 003              -0.05        2.40925
   O 010 --   Na 003              -0.05        2.40925
   O 009 --   Na 004              -0.05        2.40925
   O 011 --   Na 004              -0.05        2.40925
   O 015 --   Na 002              -0.05        2.40925
   O 013 --   Na 002              -0.05        2.40925
   O 001 --    O 005              -0.10        2.47550
   O 003 --    O 007              -0.10        2.47550
   O 004 --    O 008              -0.10        2.47550
   O 002 --    O 006              -0.10        2.47550
   O 011 --    O 021              -0.10        2.58348
   O 009 --    O 023              -0.10        2.58348
   O 015 --    O 017              -0.10        2.58348
   O 013 --    O 019              -0.10        2.58348
   O 012 --    O 022              -0.10        2.58348
   O 010 --    O 024              -0.10        2.58348
   O 016 --    O 018              -0.10        2.58348
   O 014 --    O 020              -0.10        2.58348
   O 017 --    O 023              -0.17        2.61437
   O 019 --    O 021              -0.17        2.61437
   O 018 --    O 024              -0.17        2.61437
   O 020 --    O 022              -0.17        2.61437
   O 008 --    O 024              -0.09        2.63809
   O 002 --    O 018              -0.09        2.63809
   O 004 --    O 020              -0.09        2.63809
   O 006 --    O 022              -0.09        2.63809
   O 005 --    O 021              -0.09        2.63809
   O 003 --    O 019              -0.09        2.63809
   O 007 --    O 023              -0.09        2.63809
   O 001 --    O 017              -0.09        2.63809
   O 003 --    O 021              -0.08        2.64401
   O 005 --    O 019              -0.08        2.64401
   O 007 --    O 017              -0.08        2.64401
   O 001 --    O 023              -0.08        2.64401
   O 008 --    O 018              -0.08        2.64402
   O 002 --    O 024              -0.08        2.64402
   O 004 --    O 022              -0.08        2.64402
   O 006 --    O 020              -0.08        2.64402
   O 010 --    O 018              -0.08        2.64950
   O 012 --    O 020              -0.08        2.64950
   O 016 --    O 024              -0.08        2.64950
   O 014 --    O 022              -0.08        2.64950
   O 011 --    O 019              -0.08        2.64950
   O 009 --    O 017              -0.08        2.64950
   O 015 --    O 023              -0.08        2.64950
   O 013 --    O 021              -0.08        2.64950
   O 007 --    O 012              -0.07        2.68808
   O 005 --    O 010              -0.07        2.68808
   O 001 --    O 014              -0.07        2.68808
   O 003 --    O 016              -0.07        2.68808
   O 004 --    O 015              -0.07        2.68808
   O 002 --    O 013              -0.07        2.68808
   O 008 --    O 011              -0.07        2.68808
   O 006 --    O 009              -0.07        2.68808
   O 001 --    O 003              -0.05        2.71162
   O 005 --    O 007              -0.05        2.71162
   O 006 --    O 008              -0.05        2.71162
   O 002 --    O 004              -0.05        2.71162
   O 007 --    O 014              -0.05        2.71270
   O 005 --    O 016              -0.05        2.71270
   O 003 --    O 010              -0.05        2.71270
   O 001 --    O 012              -0.05        2.71270
   O 008 --    O 013              -0.05        2.71270
   O 006 --    O 015              -0.05        2.71270
   O 004 --    O 009              -0.05        2.71270
   O 002 --    O 011              -0.05        2.71270
   O 017 --   Na 004              -0.02        2.71282
   O 019 --   Na 004              -0.02        2.71282
   O 023 --   Na 002              -0.02        2.71282
   O 021 --   Na 002              -0.02        2.71282
   O 020 --   Na 003              -0.02        2.71282
   O 018 --   Na 003              -0.02        2.71282
   O 022 --   Na 001              -0.02        2.71282
   O 024 --   Na 001              -0.02        2.71282
   O 020 --    O 024              -0.04        2.76488
   O 018 --    O 022              -0.04        2.76488
   O 017 --    O 021              -0.04        2.76489
   O 019 --    O 023              -0.04        2.76489
   O 003 --    O 011              -0.06        2.77424
   O 001 --    O 009              -0.06        2.77424
   O 005 --    O 013              -0.06        2.77424
   O 007 --    O 015              -0.06        2.77424
   O 002 --    O 010              -0.06        2.77424
   O 008 --    O 016              -0.06        2.77424
   O 004 --    O 012              -0.06        2.77424
   O 006 --    O 014              -0.06        2.77424
   O 010 --    O 012              -0.05        2.79406
   O 014 --    O 016              -0.05        2.79406
   O 013 --    O 015              -0.05        2.79406
   O 009 --    O 011              -0.05        2.79406
   O 001 --    O 016              -0.04        2.81539
   O 007 --    O 010              -0.04        2.81539
   O 005 --    O 012              -0.04        2.81539
   O 003 --    O 014              -0.04        2.81539
   O 004 --    O 013              -0.04        2.81539
   O 002 --    O 015              -0.04        2.81539
   O 008 --    O 009              -0.04        2.81539
   O 006 --    O 011              -0.04        2.81539
   O 014 --    O 017              -0.03        2.90607
   O 016 --    O 019              -0.03        2.90607
   O 010 --    O 021              -0.03        2.90607
   O 012 --    O 023              -0.03        2.90607
   O 013 --    O 018              -0.03        2.90607
   O 015 --    O 020              -0.03        2.90607
   O 011 --    O 024              -0.03        2.90607
   O 009 --    O 022              -0.03        2.90607
   O 004 --    O 006              -0.06        2.92370
   O 002 --    O 008              -0.06        2.92370
   O 003 --    O 005              -0.06        2.92370
   O 001 --    O 007              -0.06        2.92370
============================================================
 
 
Writing model to jadeite_4_30_GPa_cij__4__1.check
 
Writing analysis data to jadeite_4_30_GPa_cij__4__1.castep_bin
Initialisation time =      6.84 s
Calculation time    =   1674.82 s
Finalisation time   =      0.88 s
Total time          =   1682.54 s
Peak Memory Use     = 222404 kB
