 +-------------------------------------------------+
 |                                                 |
 |      CCC   AA    SSS  TTTTT  EEEEE  PPPP        |
 |     C     A  A  S       T    E      P   P       |
 |     C     AAAA   SS     T    EEE    PPPP        |
 |     C     A  A     S    T    E      P           |
 |      CCC  A  A  SSS     T    EEEEE  P           |
 |                                                 |
 +-------------------------------------------------+
 |                                                 |
 | Welcome to Academic Release CASTEP version 5.02 |
 | Ab Initio Total Energy Program                  |
 |                                                 |
 | Authors:                                        |
 | M. Segall, M. Probert, C. Pickard, P. Hasnip,   |
 | S. Clark, K. Refson, M. Payne                   |
 |                                                 |
 | Contributors:                                   |
 | P. Lindan, P. Haynes, J. White, V. Milman,      |
 | N. Govind, M. Gibson, P. Tulip, V. Cocula,      |
 | B. Montanari, D. Quigley, M. Glover,            |
 | L. Bernasconi, A. Perlov, M. Plummer            |
 |                                                 |
 | Copyright (c) 2000 - 2009                       |
 |                                                 |
 |     Distributed under the terms of an           |
 |     Agreement between the United Kingdom        |
 |     Car-Parrinello (UKCP) Consortium,           |
 |     Daresbury Laboratory and Accelrys, Inc.     |
 |                                                 |
 | Please cite                                     |
 |                                                 |
 |     "First principles methods using CASTEP"     |
 |                                                 |
 |         Zeitschrift fuer Kristallographie       |
 |           220(5-6) pp. 567-570 (2005)           |
 |                                                 |
 | S. J. Clark, M. D. Segall, C. J. Pickard,       |
 | P. J. Hasnip, M. J. Probert, K. Refson,         |
 | M. C. Payne                                     |
 |                                                 |
 |       in all publications arising from          |
 |              your use of CASTEP                 |
 |                                                 |
 +-------------------------------------------------+
 
 
 Pseudo atomic calculation performed for O 2s2 2p4
 
 Converged in 36 iterations to a total energy of -429.6485 eV
 
 
 Pseudo atomic calculation performed for Na 2s2 2p6 3s1
 
 Converged in 33 iterations to a total energy of -1302.8467 eV
 
 
 Pseudo atomic calculation performed for Al 3s2 3p1
 
 Converged in 20 iterations to a total energy of -52.7392 eV
 
 
 Pseudo atomic calculation performed for Si 3s2 3p2
 
 Converged in 21 iterations to a total energy of -101.9044 eV
 
Calculation parallelised over   36 nodes.
K-points are distributed over    6 groups, each containing    6 nodes.

 ************************************ Title ************************************
 

 ***************************** General Parameters ******************************
  
 output verbosity                               : normal  (1)
 write checkpoint data to                       : jadeite_4_30_GPa_cij__1__4.check
 type of calculation                            : geometry optimization
 stress calculation                             : on
 density difference calculation                 : off
 electron localisation func (ELF) calculation   : off
 Hirshfeld analysis                             : off
 unlimited duration calculation
 timing information                             : on
 memory usage estimate                          : on
 write final potential to formatted file        : off
 write final density to formatted file          : off
  
 output         length unit                     : A
 output           mass unit                     : amu
 output           time unit                     : ps
 output         charge unit                     : e
 output         energy unit                     : eV
 output          force unit                     : eV/A
 output       velocity unit                     : A/ps
 output       pressure unit                     : GPa
 output     inv_length unit                     : 1/A
 output      frequency unit                     : cm-1
 output force constant unit                     : eV/A**2
 output         volume unit                     : A**3
 output   IR intensity unit                     : (D/A)**2/amu
 output         dipole unit                     : D
 output         efield unit                     : eV/A/e
  
 wavefunctions paging                           : none
 data distribution                              : optimal for this architecture
 optimization strategy                          : maximize speed(+++)

 *********************** Exchange-Correlation Parameters ***********************
  
 using functional                               : Perdew Burke Ernzerhof
 Divergence correction                          : off
 DFT+D: Semi-empirical dispersion correction    : off

 ************************* Pseudopotential Parameters **************************
  
 pseudopotential representation                 : reciprocal space
 <beta|phi> representation                      : reciprocal space

 **************************** Basis Set Parameters *****************************
  
 plane wave basis set cut-off                   :   700.0000   eV
 finite basis set correction                    : none

 **************************** Electronic Parameters ****************************
  
 number of  electrons                           :  224.0    
 net charge of system                           :  0.000    
 net spin   of system                           :  0.000    
 number of  up  spins                           :  112.0    
 number of down spins                           :  112.0    
 treating system as non-spin-polarized
 number of bands                                :        112

 ********************* Electronic Minimization Parameters **********************
  
 Method: Treating system as non-metallic,
         and number of  SD  steps               :          1
         and number of  CG  steps               :          4
  
 total energy / atom convergence tol.           : 0.1000E-07   eV
 max force / atom convergence tol.              : ignored
 convergence tolerance window                   :          3   cycles
 max. number of SCF cycles                      :        100

 *********************** Population Analysis Parameters ************************
  
 Population analysis with cutoff                :  3.000       A

 ********************** Geometry Optimization Parameters ***********************
  
 optimization method                            : BFGS
 variable cell method                           : fixed basis quality
 max. number of steps                           :        300
 estimated bulk modulus                         :  500.0       GPa
 estimated <frequency>                          :  1668.       cm-1
 line minimiser tolerance                       :     0.4000
 total energy convergence tolerance             : 0.2000E-06   eV/atom
        max ionic |force| tolerance             : 0.1000E-02   eV/A
 max ionic |displacement| tolerance             : 0.1000E-02   A
   max |stress component| tolerance             : 0.1000E-02   GPa
 convergence tolerance window                   :          2   steps
 backup results every                           :          1   steps

 *******************************************************************************
  
 
                           -------------------------------
                                      Unit Cell
                           -------------------------------
        Real Lattice(A)                      Reciprocal Lattice(1/A)
   8.9146726   0.0000000  -2.8290832        0.7048139   0.0000000   0.0000000
   0.0000000   8.5603493  -0.0666667        0.0000000   0.7339870   0.0000000
   0.0000000   0.0000000   5.2199179        0.3819940   0.0093742   1.2036943
 
                       Lattice parameters(A)       Cell Angles
                    a =    9.352812          alpha =   90.446202
                    b =    8.560609          beta  =  107.606905
                    c =    5.219918          gamma =   89.865032
 
                       Current cell volume =  398.346088       A**3
 
                           -------------------------------
                                     Cell Contents
                           -------------------------------
                         Total number of ions in cell =   40
                      Total number of species in cell =    4
                        Max number of any one species =   24
 
            xxxxxxxxxxxxxxxxxxxxxxxxxxxxxxxxxxxxxxxxxxxxxxxxxxxxxxxxxxxx
            x  Element    Atom        Fractional coordinates of atoms  x
            x            Number           u          v          w      x
            x----------------------------------------------------------x
            x  O            1         0.109277   0.076953   0.129205   x
            x  O            2         0.609279   0.576952   0.129208   x
            x  O            3         0.890723   0.076953   0.370795   x
            x  O            4         0.390721   0.576952   0.370792   x
            x  O            5         0.890723   0.923047   0.870795   x
            x  O            6         0.390721   0.423048   0.870792   x
            x  O            7         0.109277   0.923047   0.629205   x
            x  O            8         0.609279   0.423048   0.629208   x
            x  O            9         0.361047   0.263746   0.295383   x
            x  O           10         0.861046   0.763747   0.295382   x
            x  O           11         0.638953   0.263746   0.204617   x
            x  O           12         0.138954   0.763747   0.204618   x
            x  O           13         0.638953   0.736254   0.704617   x
            x  O           14         0.138954   0.236253   0.704618   x
            x  O           15         0.361047   0.736254   0.795383   x
            x  O           16         0.861046   0.236253   0.795382   x
            x  O           17         0.354029   0.008469   1.005059   x
            x  O           18         0.854032   0.508466   1.005069   x
            x  O           19         0.645971   0.008469   0.494941   x
            x  O           20         0.145968   0.508466   0.494931   x
            x  O           21         0.645971   0.991530  -0.005059   x
            x  O           22         0.145968   0.491534  -0.005069   x
            x  O           23         0.354029   0.991530   0.505059   x
            x  O           24         0.854032   0.491534   0.505069   x
            x  Na           1         0.000000   0.301230   0.250000   x
            x  Na           2         0.500000   0.801235   0.250000   x
            x  Na           3         0.000000   0.698770   0.750000   x
            x  Na           4         0.500000   0.198765   0.750000   x
            x  Al           1         0.000000   0.906276   0.250000   x
            x  Al           2         0.500000   0.406277   0.250000   x
            x  Al           3         0.000000   0.093724   0.750000   x
            x  Al           4         0.500000   0.593723   0.750000   x
            x  Si           1         0.290869   0.093825   0.228100   x
            x  Si           2         0.790871   0.593824   0.228106   x
            x  Si           3         0.709131   0.093825   0.271900   x
            x  Si           4         0.209129   0.593824   0.271894   x
            x  Si           5         0.709131   0.906176   0.771900   x
            x  Si           6         0.209129   0.406176   0.771894   x
            x  Si           7         0.290869   0.906176   0.728100   x
            x  Si           8         0.790871   0.406176   0.728106   x
            xxxxxxxxxxxxxxxxxxxxxxxxxxxxxxxxxxxxxxxxxxxxxxxxxxxxxxxxxxxx
 
 
                         No user defined ionic velocities
 
                           -------------------------------
                                   Details of Species
                           -------------------------------
 
                               Mass of species in AMU
                                    O   15.9994000
                                    Na   22.9897700
                                    Al   26.9815400
                                    Si   28.0855000
 
                          Electric Quadrupole Moment (Barn)
                                    O   -0.0255800 Isotope 17
                                    Na    0.1040000 Isotope 23
                                    Al    0.1466000 Isotope 27
                                    Si    1.0000000 No Isotope Defined
 
                          Files used for pseudopotentials:
                                    O O_00PBE.usp
                                    Na Na_00PBE.usp
                                    Al Al_00PBE.usp
                                    Si Si_00PBE.usp
 
                           -------------------------------
                              k-Points For BZ Sampling
                           -------------------------------
                       MP grid size for SCF calculation is  2  2  3
                         Number of kpoints used = 6
 
             +++++++++++++++++++++++++++++++++++++++++++++++++++++++
             +  Number       Fractional coordinates        Weight  +
             +-----------------------------------------------------+
             +     1  -0.250000   0.250000   0.333333   0.1666667  +
             +     2  -0.250000   0.250000   0.000000   0.1666667  +
             +     3   0.250000  -0.250000   0.333333   0.1666667  +
             +     4  -0.250000  -0.250000   0.333333   0.1666667  +
             +     5   0.250000   0.250000   0.000000   0.1666667  +
             +     6   0.250000   0.250000   0.333333   0.1666667  +
             +++++++++++++++++++++++++++++++++++++++++++++++++++++++
 
                           -------------------------------
                               Symmetry and Constraints
                           -------------------------------
 
                      Number of symmetry operations   = 2
                      Number of ionic constraints     = 3
                      Maximum deviation from symmetry = 0.147118E-14     ANG
               Point group of crystal =     2: Ci, -1, -1
           Set iprint > 1 for details on symmetry rotations/translations
 
                          Centre of mass is constrained
             Set iprint > 1 for details of linear ionic constraints
 
                         Number of cell constraints= 6
                         Cell constraints are:  0 0 0 0 0 0
 
                         External pressure/stress (GPa)
                          4.30000   0.00000   0.00000
                                    4.30000   0.00000
                                              4.30000
  
+---------------- MEMORY AND SCRATCH DISK ESTIMATES PER NODE -----------------+
|                                                     Memory          Disk    |
| Model and support data                               91.0 MB         0.0 MB |
| Electronic energy minimisation requirements          32.3 MB         0.0 MB |
|                                               ----------------------------- |
| Approx. total storage required per node             123.3 MB         0.0 MB |
|                                                                             |
| Requirements will fluctuate during execution and may exceed these estimates |
+-----------------------------------------------------------------------------+
------------------------------------------------------------------------ <-- SCF
SCF loop      Energy                           Energy gain       Timer   <-- SCF
                                               per atom          (sec)   <-- SCF
------------------------------------------------------------------------ <-- SCF
Initial  -1.67957790E+003                                          6.54  <-- SCF
      1  -1.64592482E+004                    3.69491758E+002      25.57  <-- SCF
      2  -1.68174586E+004                    8.95525881E+000      43.66  <-- SCF
      3  -1.68439783E+004                    6.62993931E-001      61.83  <-- SCF
      4  -1.68459687E+004                    4.97600929E-002      79.60  <-- SCF
      5  -1.68459917E+004                    5.74918411E-004      97.48  <-- SCF
      6  -1.68459921E+004                    1.05140415E-005     115.34  <-- SCF
      7  -1.68459921E+004                    2.96162750E-007     133.11  <-- SCF
      8  -1.68459922E+004                    8.95977026E-009     151.41  <-- SCF
      9  -1.68459922E+004                    2.78885900E-010     169.59  <-- SCF
------------------------------------------------------------------------ <-- SCF
 
Final energy =  -16845.99215027     eV
(energy not corrected for finite basis set)
 
 
Writing model to jadeite_4_30_GPa_cij__1__4.check
 
+---------------- MEMORY AND SCRATCH DISK ESTIMATES PER NODE -----------------+
|                                                     Memory          Disk    |
| Model and support data                               84.3 MB         0.0 MB |
| Geometry minimisation requirements                   37.6 MB         0.0 MB |
|                                               ----------------------------- |
| Approx. total storage required per node             121.9 MB         0.0 MB |
|                                                                             |
| Requirements will fluctuate during execution and may exceed these estimates |
+-----------------------------------------------------------------------------+
 
 
 *********************************** Forces ***********************************
 *                                                                            *
 *                        Cartesian components (eV/A)                         *
 * -------------------------------------------------------------------------- *
 *                   x                    y                    z              *
 *                                                                            *
 * O         1     -0.24330              0.00004              0.00834         *
 * O         2     -0.24347              0.00009              0.00829         *
 * O         3      0.26617             -0.01796             -0.01741         *
 * O         4      0.26633             -0.01791             -0.01736         *
 * O         5      0.24330             -0.00004             -0.00834         *
 * O         6      0.24347             -0.00009             -0.00829         *
 * O         7     -0.26617              0.01796              0.01741         *
 * O         8     -0.26633              0.01791              0.01736         *
 * O         9      0.00835              0.06780              0.03636         *
 * O        10      0.00846              0.06786              0.03636         *
 * O        11      0.04271             -0.01323             -0.00875         *
 * O        12      0.04258             -0.01316             -0.00875         *
 * O        13     -0.00835             -0.06780             -0.03636         *
 * O        14     -0.00846             -0.06786             -0.03636         *
 * O        15     -0.04271              0.01323              0.00875         *
 * O        16     -0.04258              0.01316              0.00875         *
 * O        17      0.13549              0.00620              0.00311         *
 * O        18      0.13542              0.00627              0.00307         *
 * O        19     -0.00070              0.00295             -0.00705         *
 * O        20     -0.00063              0.00302             -0.00701         *
 * O        21     -0.13549             -0.00620             -0.00311         *
 * O        22     -0.13542             -0.00627             -0.00307         *
 * O        23      0.00070             -0.00295              0.00705         *
 * O        24      0.00063             -0.00302              0.00701         *
 * Na        1     -0.01701             -0.00526              0.01670         *
 * Na        2     -0.01701             -0.00537              0.01670         *
 * Na        3      0.01701              0.00526             -0.01670         *
 * Na        4      0.01701              0.00537             -0.01670         *
 * Al        1     -0.02957              0.01685             -0.00699         *
 * Al        2     -0.02957              0.01696             -0.00700         *
 * Al        3      0.02957             -0.01685              0.00699         *
 * Al        4      0.02957             -0.01696              0.00700         *
 * Si        1      0.21919             -0.02290              0.18931         *
 * Si        2      0.21897             -0.02286              0.18929         *
 * Si        3     -0.25711              0.00528              0.18644         *
 * Si        4     -0.25689              0.00530              0.18647         *
 * Si        5     -0.21919              0.02290             -0.18931         *
 * Si        6     -0.21897              0.02286             -0.18929         *
 * Si        7      0.25711             -0.00528             -0.18644         *
 * Si        8      0.25689             -0.00530             -0.18647         *
 *                                                                            *
 ******************************************************************************
 BFGS: finished iteration     0 with enthalpy= -1.68353011E+004 eV
  
 +-----------+-----------------+-----------------+------------+-----+ <-- BFGS
 | Parameter |      value      |    tolerance    |    units   | OK? | <-- BFGS
 +-----------+-----------------+-----------------+------------+-----+ <-- BFGS
 |  dE/ion   |   0.000000E+000 |   2.000000E-007 |         eV | No  | <-- BFGS
 |  |F|max   |   3.176378E-001 |   1.000000E-003 |       eV/A | No  | <-- BFGS
 |  |dR|max  |   0.000000E+000 |   1.000000E-003 |          A | No  | <-- BFGS
 +-----------+-----------------+-----------------+------------+-----+ <-- BFGS
  

================================================================================
 Starting BFGS iteration          1 ...
================================================================================
 
Writing model to jadeite_4_30_GPa_cij__1__4.check
  
 +------------+-------------+-------------+-----------------+ <-- min BFGS
 |    Step    |   lambda    |   F.delta   |    enthalpy     | <-- min BFGS
 +------------+-------------+-------------+-----------------+ <-- min BFGS
 |  previous  |    0.000000 |    0.000245 |   -16835.301142 | <-- min BFGS
 +------------+-------------+-------------+-----------------+ <-- min BFGS
  

--------------------------------------------------------------------------------
 BFGS: starting iteration         1 with trial guess (lambda=  1.000000)
--------------------------------------------------------------------------------
 
                           -------------------------------
                                     Cell Contents
                           -------------------------------
 
            xxxxxxxxxxxxxxxxxxxxxxxxxxxxxxxxxxxxxxxxxxxxxxxxxxxxxxxxxxxx
            x  Element    Atom        Fractional coordinates of atoms  x
            x            Number           u          v          w      x
            x----------------------------------------------------------x
            x  O            1         0.109145   0.076953   0.129141   x
            x  O            2         0.609147   0.576952   0.129144   x
            x  O            3         0.890867   0.076943   0.370857   x
            x  O            4         0.390865   0.576941   0.370854   x
            x  O            5         0.890855   0.923047   0.870859   x
            x  O            6         0.390853   0.423048   0.870856   x
            x  O            7         0.109133   0.923057   0.629143   x
            x  O            8         0.609135   0.423059   0.629146   x
            x  O            9         0.361052   0.263785   0.295420   x
            x  O           10         0.861051   0.763785   0.295419   x
            x  O           11         0.638976   0.263739   0.204621   x
            x  O           12         0.138977   0.763740   0.204622   x
            x  O           13         0.638948   0.736215   0.704580   x
            x  O           14         0.138949   0.236215   0.704581   x
            x  O           15         0.361024   0.736261   0.795379   x
            x  O           16         0.861023   0.236260   0.795378   x
            x  O           17         0.354103   0.008473   1.005102   x
            x  O           18         0.854105   0.508470   1.005112   x
            x  O           19         0.645971   0.008471   0.494934   x
            x  O           20         0.145968   0.508468   0.494924   x
            x  O           21         0.645897   0.991527  -0.005102   x
            x  O           22         0.145895   0.491530  -0.005112   x
            x  O           23         0.354029   0.991529   0.505066   x
            x  O           24         0.854032   0.491532   0.505076   x
            x  Na           1        -0.000009   0.301227   0.250010   x
            x  Na           2         0.499991   0.801231   0.250010   x
            x  Na           3         0.000009   0.698773   0.749990   x
            x  Na           4         0.500009   0.198769   0.749990   x
            x  Al           1        -0.000016   0.906286   0.249985   x
            x  Al           2         0.499984   0.406286   0.249985   x
            x  Al           3         0.000016   0.093714   0.750015   x
            x  Al           4         0.500016   0.593714   0.750015   x
            x  Si           1         0.290988   0.093812   0.228340   x
            x  Si           2         0.790990   0.593811   0.228346   x
            x  Si           3         0.708992   0.093827   0.271997   x
            x  Si           4         0.208990   0.593826   0.271991   x
            x  Si           5         0.709012   0.906188   0.771660   x
            x  Si           6         0.209010   0.406189   0.771654   x
            x  Si           7         0.291008   0.906173   0.728003   x
            x  Si           8         0.791010   0.406174   0.728009   x
            xxxxxxxxxxxxxxxxxxxxxxxxxxxxxxxxxxxxxxxxxxxxxxxxxxxxxxxxxxxx
 
 
------------------------------------------------------------------------ <-- SCF
SCF loop      Energy                           Energy gain       Timer   <-- SCF
                                               per atom          (sec)   <-- SCF
------------------------------------------------------------------------ <-- SCF
Initial  -1.68459829E+004                                        179.88  <-- SCF
      1  -1.68459978E+004                    3.71958290E-004     198.21  <-- SCF
      2  -1.68459978E+004                    1.44470785E-007     216.62  <-- SCF
      3  -1.68459978E+004                    1.71639345E-009     234.93  <-- SCF
      4  -1.68459978E+004                    3.46480542E-011     254.60  <-- SCF
------------------------------------------------------------------------ <-- SCF
 
Final energy =  -16845.99779863     eV
(energy not corrected for finite basis set)
 
 
 *********************************** Forces ***********************************
 *                                                                            *
 *                        Cartesian components (eV/A)                         *
 * -------------------------------------------------------------------------- *
 *                   x                    y                    z              *
 *                                                                            *
 * O         1     -0.16341              0.00825              0.01156         *
 * O         2     -0.16356              0.00830              0.01152         *
 * O         3      0.17726             -0.00687             -0.01320         *
 * O         4      0.17741             -0.00682             -0.01316         *
 * O         5      0.16341             -0.00825             -0.01156         *
 * O         6      0.16356             -0.00830             -0.01152         *
 * O         7     -0.17726              0.00687              0.01320         *
 * O         8     -0.17741              0.00682              0.01316         *
 * O         9      0.00525              0.05445              0.04089         *
 * O        10      0.00535              0.05448              0.04090         *
 * O        11      0.03603             -0.00356             -0.00298         *
 * O        12      0.03593             -0.00353             -0.00299         *
 * O        13     -0.00525             -0.05445             -0.04089         *
 * O        14     -0.00535             -0.05448             -0.04090         *
 * O        15     -0.03603              0.00356              0.00298         *
 * O        16     -0.03593              0.00353              0.00299         *
 * O        17      0.12677              0.00786              0.00665         *
 * O        18      0.12670              0.00792              0.00661         *
 * O        19     -0.02016              0.00225             -0.00118         *
 * O        20     -0.02008              0.00232             -0.00114         *
 * O        21     -0.12677             -0.00786             -0.00665         *
 * O        22     -0.12670             -0.00792             -0.00661         *
 * O        23      0.02016             -0.00225              0.00118         *
 * O        24      0.02008             -0.00232              0.00114         *
 * Na        1     -0.01874             -0.01189              0.01356         *
 * Na        2     -0.01873             -0.01200              0.01355         *
 * Na        3      0.01874              0.01189             -0.01356         *
 * Na        4      0.01873              0.01200             -0.01355         *
 * Al        1     -0.02939              0.02878             -0.00606         *
 * Al        2     -0.02938              0.02886             -0.00607         *
 * Al        3      0.02939             -0.02878              0.00606         *
 * Al        4      0.02938             -0.02886              0.00607         *
 * Si        1      0.14248             -0.01417              0.14167         *
 * Si        2      0.14231             -0.01411              0.14166         *
 * Si        3     -0.16476             -0.00242              0.13694         *
 * Si        4     -0.16459             -0.00237              0.13696         *
 * Si        5     -0.14248              0.01417             -0.14167         *
 * Si        6     -0.14231              0.01411             -0.14166         *
 * Si        7      0.16476              0.00242             -0.13694         *
 * Si        8      0.16459              0.00237             -0.13696         *
 *                                                                            *
 ******************************************************************************
  
 +------------+-------------+-------------+-----------------+ <-- min BFGS
 |    Step    |   lambda    |   F.delta   |    enthalpy     | <-- min BFGS
 +------------+-------------+-------------+-----------------+ <-- min BFGS
 |  previous  |    0.000000 |    0.000245 |   -16835.301142 | <-- min BFGS
 | trial step |    1.000000 |    0.000170 |   -16835.306791 | <-- min BFGS
 +------------+-------------+-------------+-----------------+ <-- min BFGS
  

--------------------------------------------------------------------------------
 BFGS: improving iteration         1 with line minimization (lambda=  3.291981)
--------------------------------------------------------------------------------
 
                           -------------------------------
                                     Cell Contents
                           -------------------------------
 
            xxxxxxxxxxxxxxxxxxxxxxxxxxxxxxxxxxxxxxxxxxxxxxxxxxxxxxxxxxxx
            x  Element    Atom        Fractional coordinates of atoms  x
            x            Number           u          v          w      x
            x----------------------------------------------------------x
            x  O            1         0.108842   0.076953   0.128995   x
            x  O            2         0.608844   0.576952   0.128998   x
            x  O            3         0.891198   0.076920   0.370999   x
            x  O            4         0.391197   0.576918   0.370996   x
            x  O            5         0.891158   0.923047   0.871005   x
            x  O            6         0.391156   0.423048   0.871002   x
            x  O            7         0.108802   0.923080   0.629001   x
            x  O            8         0.608803   0.423082   0.629004   x
            x  O            9         0.361062   0.263873   0.295504   x
            x  O           10         0.861061   0.763873   0.295503   x
            x  O           11         0.639029   0.263722   0.204631   x
            x  O           12         0.139030   0.763723   0.204632   x
            x  O           13         0.638938   0.736127   0.704496   x
            x  O           14         0.138939   0.236127   0.704497   x
            x  O           15         0.360971   0.736278   0.795369   x
            x  O           16         0.860970   0.236277   0.795368   x
            x  O           17         0.354271   0.008481   1.005200   x
            x  O           18         0.854274   0.508478   1.005210   x
            x  O           19         0.645970   0.008475   0.494919   x
            x  O           20         0.145967   0.508472   0.494909   x
            x  O           21         0.645729   0.991519  -0.005200   x
            x  O           22         0.145726   0.491522  -0.005210   x
            x  O           23         0.354030   0.991525   0.505081   x
            x  O           24         0.854033   0.491528   0.505091   x
            x  Na           1        -0.000030   0.301220   0.250034   x
            x  Na           2         0.499970   0.801225   0.250034   x
            x  Na           3         0.000030   0.698780   0.749966   x
            x  Na           4         0.500030   0.198775   0.749966   x
            x  Al           1        -0.000053   0.906308   0.249950   x
            x  Al           2         0.499947   0.406308   0.249950   x
            x  Al           3         0.000053   0.093692   0.750050   x
            x  Al           4         0.500053   0.593692   0.750050   x
            x  Si           1         0.291260   0.093782   0.228889   x
            x  Si           2         0.791262   0.593781   0.228895   x
            x  Si           3         0.708672   0.093834   0.272220   x
            x  Si           4         0.208670   0.593833   0.272214   x
            x  Si           5         0.708740   0.906218   0.771111   x
            x  Si           6         0.208738   0.406219   0.771105   x
            x  Si           7         0.291328   0.906166   0.727780   x
            x  Si           8         0.791330   0.406167   0.727786   x
            xxxxxxxxxxxxxxxxxxxxxxxxxxxxxxxxxxxxxxxxxxxxxxxxxxxxxxxxxxxx
 
 
------------------------------------------------------------------------ <-- SCF
SCF loop      Energy                           Energy gain       Timer   <-- SCF
                                               per atom          (sec)   <-- SCF
------------------------------------------------------------------------ <-- SCF
Initial  -1.68459312E+004                                        262.89  <-- SCF
      1  -1.68460031E+004                    1.79765171E-003     282.81  <-- SCF
      2  -1.68460032E+004                    7.09739017E-007     302.52  <-- SCF
      3  -1.68460032E+004                    8.32303493E-009     322.63  <-- SCF
      4  -1.68460032E+004                    1.61097984E-010     343.60  <-- SCF
------------------------------------------------------------------------ <-- SCF
 
Final energy =  -16846.00316416     eV
(energy not corrected for finite basis set)
 
 
 *********************************** Forces ***********************************
 *                                                                            *
 *                        Cartesian components (eV/A)                         *
 * -------------------------------------------------------------------------- *
 *                   x                    y                    z              *
 *                                                                            *
 * O         1      0.01683              0.02682              0.01916         *
 * O         2      0.01668              0.02687              0.01913         *
 * O         3     -0.02286              0.01834             -0.00330         *
 * O         4     -0.02271              0.01839             -0.00326         *
 * O         5     -0.01683             -0.02682             -0.01916         *
 * O         6     -0.01668             -0.02687             -0.01913         *
 * O         7      0.02286             -0.01834              0.00330         *
 * O         8      0.02271             -0.01839              0.00326         *
 * O         9     -0.00186              0.02382              0.05126         *
 * O        10     -0.00182              0.02377              0.05127         *
 * O        11      0.02075              0.01875              0.01015         *
 * O        12      0.02071              0.01870              0.01013         *
 * O        13      0.00186             -0.02382             -0.05126         *
 * O        14      0.00182             -0.02377             -0.05127         *
 * O        15     -0.02075             -0.01875             -0.01015         *
 * O        16     -0.02071             -0.01870             -0.01013         *
 * O        17      0.10697              0.01166              0.01479         *
 * O        18      0.10686              0.01171              0.01474         *
 * O        19     -0.06510              0.00063              0.01242         *
 * O        20     -0.06499              0.00069              0.01248         *
 * O        21     -0.10697             -0.01166             -0.01479         *
 * O        22     -0.10686             -0.01171             -0.01474         *
 * O        23      0.06510             -0.00063             -0.01242         *
 * O        24      0.06499             -0.00069             -0.01248         *
 * Na        1     -0.02271             -0.02710              0.00632         *
 * Na        2     -0.02270             -0.02720              0.00632         *
 * Na        3      0.02271              0.02710             -0.00632         *
 * Na        4      0.02270              0.02720             -0.00632         *
 * Al        1     -0.02890              0.05596             -0.00395         *
 * Al        2     -0.02890              0.05600             -0.00395         *
 * Al        3      0.02890             -0.05596              0.00395         *
 * Al        4      0.02890             -0.05600              0.00395         *
 * Si        1     -0.03067              0.00666              0.03195         *
 * Si        2     -0.03073              0.00675              0.03194         *
 * Si        3      0.04333             -0.01933              0.02264         *
 * Si        4      0.04338             -0.01924              0.02265         *
 * Si        5      0.03067             -0.00666             -0.03195         *
 * Si        6      0.03073             -0.00675             -0.03194         *
 * Si        7     -0.04333              0.01933             -0.02264         *
 * Si        8     -0.04338              0.01924             -0.02265         *
 *                                                                            *
 ******************************************************************************
  
 +------------+-------------+-------------+-----------------+ <-- min BFGS
 |    Step    |   lambda    |   F.delta   |    enthalpy     | <-- min BFGS
 +------------+-------------+-------------+-----------------+ <-- min BFGS
 |  previous  |    0.000000 |    0.000245 |   -16835.301142 | <-- min BFGS
 | trial step |    1.000000 |    0.000170 |   -16835.306791 | <-- min BFGS
 |  line step |    3.291981 |    0.000002 |   -16835.312156 | <-- min BFGS
 +------------+-------------+-------------+-----------------+ <-- min BFGS
  
 BFGS: finished iteration     1 with enthalpy= -1.68353122E+004 eV
  
 +-----------+-----------------+-----------------+------------+-----+ <-- BFGS
 | Parameter |      value      |    tolerance    |    units   | OK? | <-- BFGS
 +-----------+-----------------+-----------------+------------+-----+ <-- BFGS
 |  dE/ion   |   2.753473E-004 |   2.000000E-007 |         eV | No  | <-- BFGS
 |  |F|max   |   1.086143E-001 |   1.000000E-003 |       eV/A | No  | <-- BFGS
 |  |dR|max  |   5.057101E-003 |   1.000000E-003 |          A | No  | <-- BFGS
 +-----------+-----------------+-----------------+------------+-----+ <-- BFGS
  

================================================================================
 Starting BFGS iteration          2 ...
================================================================================
 
Writing model to jadeite_4_30_GPa_cij__1__4.check
  
 +------------+-------------+-------------+-----------------+ <-- min BFGS
 |    Step    |   lambda    |   F.delta   |    enthalpy     | <-- min BFGS
 +------------+-------------+-------------+-----------------+ <-- min BFGS
 |  previous  |    0.000000 |    0.000024 |   -16835.312156 | <-- min BFGS
 +------------+-------------+-------------+-----------------+ <-- min BFGS
  

--------------------------------------------------------------------------------
 BFGS: starting iteration         2 with trial guess (lambda=  1.000000)
--------------------------------------------------------------------------------
 
                           -------------------------------
                                     Cell Contents
                           -------------------------------
 
            xxxxxxxxxxxxxxxxxxxxxxxxxxxxxxxxxxxxxxxxxxxxxxxxxxxxxxxxxxxx
            x  Element    Atom        Fractional coordinates of atoms  x
            x            Number           u          v          w      x
            x----------------------------------------------------------x
            x  O            1         0.108836   0.076968   0.129011   x
            x  O            2         0.608838   0.576967   0.129013   x
            x  O            3         0.891203   0.076929   0.370997   x
            x  O            4         0.391201   0.576928   0.370994   x
            x  O            5         0.891164   0.923032   0.870989   x
            x  O            6         0.391162   0.423033   0.870987   x
            x  O            7         0.108797   0.923071   0.629003   x
            x  O            8         0.608799   0.423072   0.629006   x
            x  O            9         0.361061   0.263891   0.295555   x
            x  O           10         0.861061   0.763891   0.295555   x
            x  O           11         0.639043   0.263732   0.204648   x
            x  O           12         0.139044   0.763732   0.204648   x
            x  O           13         0.638939   0.736109   0.704445   x
            x  O           14         0.138939   0.236109   0.704445   x
            x  O           15         0.360957   0.736268   0.795352   x
            x  O           16         0.860956   0.236268   0.795352   x
            x  O           17         0.354338   0.008488   1.005250   x
            x  O           18         0.854341   0.508485   1.005260   x
            x  O           19         0.645934   0.008476   0.494910   x
            x  O           20         0.145931   0.508472   0.494901   x
            x  O           21         0.645662   0.991512  -0.005250   x
            x  O           22         0.145659   0.491515  -0.005260   x
            x  O           23         0.354066   0.991524   0.505090   x
            x  O           24         0.854069   0.491528   0.505099   x
            x  Na           1        -0.000044   0.301204   0.250035   x
            x  Na           2         0.499956   0.801209   0.250035   x
            x  Na           3         0.000044   0.698796   0.749965   x
            x  Na           4         0.500044   0.198791   0.749965   x
            x  Al           1        -0.000070   0.906341   0.249937   x
            x  Al           2         0.499930   0.406341   0.249937   x
            x  Al           3         0.000070   0.093659   0.750063   x
            x  Al           4         0.500070   0.593659   0.750063   x
            x  Si           1         0.291257   0.093784   0.228938   x
            x  Si           2         0.791259   0.593783   0.228943   x
            x  Si           3         0.708679   0.093824   0.272265   x
            x  Si           4         0.208678   0.593823   0.272259   x
            x  Si           5         0.708743   0.906216   0.771062   x
            x  Si           6         0.208741   0.406217   0.771057   x
            x  Si           7         0.291321   0.906176   0.727735   x
            x  Si           8         0.791322   0.406177   0.727741   x
            xxxxxxxxxxxxxxxxxxxxxxxxxxxxxxxxxxxxxxxxxxxxxxxxxxxxxxxxxxxx
 
 
------------------------------------------------------------------------ <-- SCF
SCF loop      Energy                           Energy gain       Timer   <-- SCF
                                               per atom          (sec)   <-- SCF
------------------------------------------------------------------------ <-- SCF
Initial  -1.68460018E+004                                        353.82  <-- SCF
      1  -1.68460038E+004                    4.92316012E-005     373.70  <-- SCF
      2  -1.68460038E+004                    1.98152841E-008     393.59  <-- SCF
      3  -1.68460038E+004                    1.62799451E-010     414.92  <-- SCF
      4  -1.68460038E+004                    4.33100677E-012     439.21  <-- SCF
------------------------------------------------------------------------ <-- SCF
 
Final energy =  -16846.00376745     eV
(energy not corrected for finite basis set)
 
 
 *********************************** Forces ***********************************
 *                                                                            *
 *                        Cartesian components (eV/A)                         *
 * -------------------------------------------------------------------------- *
 *                   x                    y                    z              *
 *                                                                            *
 * O         1      0.01826              0.02508              0.01871         *
 * O         2      0.01813              0.02513              0.01868         *
 * O         3     -0.02349              0.01572             -0.00325         *
 * O         4     -0.02336              0.01577             -0.00322         *
 * O         5     -0.01826             -0.02508             -0.01871         *
 * O         6     -0.01813             -0.02513             -0.01868         *
 * O         7      0.02349             -0.01572              0.00325         *
 * O         8      0.02336             -0.01577              0.00322         *
 * O         9     -0.00411              0.02140              0.05029         *
 * O        10     -0.00407              0.02136              0.05030         *
 * O        11      0.02107              0.01716              0.01199         *
 * O        12      0.02103              0.01712              0.01198         *
 * O        13      0.00411             -0.02140             -0.05029         *
 * O        14      0.00407             -0.02136             -0.05030         *
 * O        15     -0.02107             -0.01716             -0.01199         *
 * O        16     -0.02103             -0.01712             -0.01198         *
 * O        17      0.09444              0.01132              0.01405         *
 * O        18      0.09433              0.01137              0.01400         *
 * O        19     -0.06153              0.00123              0.01027         *
 * O        20     -0.06143              0.00128              0.01032         *
 * O        21     -0.09444             -0.01132             -0.01405         *
 * O        22     -0.09433             -0.01137             -0.01400         *
 * O        23      0.06153             -0.00123             -0.01027         *
 * O        24      0.06143             -0.00128             -0.01032         *
 * Na        1     -0.02324             -0.02572              0.00549         *
 * Na        2     -0.02323             -0.02583              0.00549         *
 * Na        3      0.02324              0.02572             -0.00549         *
 * Na        4      0.02323              0.02583             -0.00549         *
 * Al        1     -0.02687              0.04980             -0.00379         *
 * Al        2     -0.02686              0.04983             -0.00380         *
 * Al        3      0.02687             -0.04980              0.00379         *
 * Al        4      0.02686             -0.04983              0.00380         *
 * Si        1     -0.02329              0.00806              0.01985         *
 * Si        2     -0.02337              0.00814              0.01984         *
 * Si        3      0.03325             -0.01733              0.01051         *
 * Si        4      0.03332             -0.01726              0.01052         *
 * Si        5      0.02329             -0.00806             -0.01985         *
 * Si        6      0.02337             -0.00814             -0.01984         *
 * Si        7     -0.03325              0.01733             -0.01051         *
 * Si        8     -0.03332              0.01726             -0.01052         *
 *                                                                            *
 ******************************************************************************
  
 +------------+-------------+-------------+-----------------+ <-- min BFGS
 |    Step    |   lambda    |   F.delta   |    enthalpy     | <-- min BFGS
 +------------+-------------+-------------+-----------------+ <-- min BFGS
 |  previous  |    0.000000 |    0.000024 |   -16835.312156 | <-- min BFGS
 | trial step |    1.000000 |    0.000021 |   -16835.312760 | <-- min BFGS
 +------------+-------------+-------------+-----------------+ <-- min BFGS
  

--------------------------------------------------------------------------------
 BFGS: improving iteration         2 with line minimization (lambda=  8.409668)
--------------------------------------------------------------------------------
 
                           -------------------------------
                                     Cell Contents
                           -------------------------------
 
            xxxxxxxxxxxxxxxxxxxxxxxxxxxxxxxxxxxxxxxxxxxxxxxxxxxxxxxxxxxx
            x  Element    Atom        Fractional coordinates of atoms  x
            x            Number           u          v          w      x
            x----------------------------------------------------------x
            x  O            1         0.108792   0.077082   0.129127   x
            x  O            2         0.608792   0.577080   0.129129   x
            x  O            3         0.891234   0.076998   0.370978   x
            x  O            4         0.391233   0.576996   0.370976   x
            x  O            5         0.891208   0.922918   0.870873   x
            x  O            6         0.391208   0.422920   0.870871   x
            x  O            7         0.108766   0.923002   0.629022   x
            x  O            8         0.608767   0.423004   0.629024   x
            x  O            9         0.361058   0.264024   0.295939   x
            x  O           10         0.861057   0.764024   0.295938   x
            x  O           11         0.639147   0.263804   0.204768   x
            x  O           12         0.139148   0.763805   0.204769   x
            x  O           13         0.638942   0.735976   0.704061   x
            x  O           14         0.138943   0.235976   0.704062   x
            x  O           15         0.360853   0.736196   0.795232   x
            x  O           16         0.860852   0.236195   0.795231   x
            x  O           17         0.354835   0.008540   1.005625   x
            x  O           18         0.854837   0.508537   1.005634   x
            x  O           19         0.645670   0.008480   0.494848   x
            x  O           20         0.145667   0.508477   0.494839   x
            x  O           21         0.645165   0.991460  -0.005625   x
            x  O           22         0.145163   0.491463  -0.005634   x
            x  O           23         0.354330   0.991520   0.505152   x
            x  O           24         0.854333   0.491523   0.505161   x
            x  Na           1        -0.000144   0.301087   0.250036   x
            x  Na           2         0.499856   0.801091   0.250036   x
            x  Na           3         0.000144   0.698913   0.749964   x
            x  Na           4         0.500144   0.198909   0.749964   x
            x  Al           1        -0.000201   0.906585   0.249836   x
            x  Al           2         0.499799   0.406586   0.249836   x
            x  Al           3         0.000201   0.093415   0.750164   x
            x  Al           4         0.500201   0.593414   0.750164   x
            x  Si           1         0.291235   0.093801   0.229297   x
            x  Si           2         0.791236   0.593801   0.229303   x
            x  Si           3         0.708735   0.093745   0.272599   x
            x  Si           4         0.208734   0.593744   0.272594   x
            x  Si           5         0.708765   0.906199   0.770703   x
            x  Si           6         0.208764   0.406199   0.770697   x
            x  Si           7         0.291265   0.906255   0.727401   x
            x  Si           8         0.791266   0.406256   0.727406   x
            xxxxxxxxxxxxxxxxxxxxxxxxxxxxxxxxxxxxxxxxxxxxxxxxxxxxxxxxxxxx
 
 
------------------------------------------------------------------------ <-- SCF
SCF loop      Energy                           Energy gain       Timer   <-- SCF
                                               per atom          (sec)   <-- SCF
------------------------------------------------------------------------ <-- SCF
Initial  -1.68459245E+004                                        447.90  <-- SCF
      1  -1.68460058E+004                    2.03289498E-003     467.89  <-- SCF
      2  -1.68460059E+004                    8.06962927E-007     487.75  <-- SCF
      3  -1.68460059E+004                    5.85776400E-009     507.44  <-- SCF
      4  -1.68460059E+004                    1.21654887E-010     527.65  <-- SCF
------------------------------------------------------------------------ <-- SCF
 
Final energy =  -16846.00586482     eV
(energy not corrected for finite basis set)
 
 
 *********************************** Forces ***********************************
 *                                                                            *
 *                        Cartesian components (eV/A)                         *
 * -------------------------------------------------------------------------- *
 *                   x                    y                    z              *
 *                                                                            *
 * O         1      0.02911              0.01216              0.01535         *
 * O         2      0.02914              0.01223              0.01534         *
 * O         3     -0.02843             -0.00364             -0.00280         *
 * O         4     -0.02847             -0.00356             -0.00280         *
 * O         5     -0.02911             -0.01216             -0.01535         *
 * O         6     -0.02914             -0.01223             -0.01534         *
 * O         7      0.02843              0.00364              0.00280         *
 * O         8      0.02847              0.00356              0.00280         *
 * O         9     -0.02067              0.00349              0.04308         *
 * O        10     -0.02061              0.00354              0.04311         *
 * O        11      0.02340              0.00539              0.02559         *
 * O        12      0.02334              0.00544              0.02556         *
 * O        13      0.02067             -0.00349             -0.04308         *
 * O        14      0.02061             -0.00354             -0.04311         *
 * O        15     -0.02340             -0.00539             -0.02559         *
 * O        16     -0.02334             -0.00544             -0.02556         *
 * O        17      0.00154              0.00899              0.00877         *
 * O        18      0.00142              0.00903              0.00872         *
 * O        19     -0.03522              0.00565             -0.00572         *
 * O        20     -0.03509              0.00568             -0.00567         *
 * O        21     -0.00154             -0.00899             -0.00877         *
 * O        22     -0.00142             -0.00903             -0.00872         *
 * O        23      0.03522             -0.00565              0.00572         *
 * O        24      0.03509             -0.00568              0.00567         *
 * Na        1     -0.02714             -0.01553             -0.00067         *
 * Na        2     -0.02714             -0.01562             -0.00067         *
 * Na        3      0.02714              0.01553              0.00067         *
 * Na        4      0.02714              0.01562              0.00067         *
 * Al        1     -0.01186              0.00419             -0.00261         *
 * Al        2     -0.01186              0.00418             -0.00261         *
 * Al        3      0.01186             -0.00419              0.00261         *
 * Al        4      0.01186             -0.00418              0.00261         *
 * Si        1      0.03118              0.01863             -0.06936         *
 * Si        2      0.03103              0.01853             -0.06939         *
 * Si        3     -0.04108             -0.00223             -0.07870         *
 * Si        4     -0.04094             -0.00233             -0.07866         *
 * Si        5     -0.03118             -0.01863              0.06936         *
 * Si        6     -0.03103             -0.01853              0.06939         *
 * Si        7      0.04108              0.00223              0.07870         *
 * Si        8      0.04094              0.00233              0.07866         *
 *                                                                            *
 ******************************************************************************
  
 +------------+-------------+-------------+-----------------+ <-- min BFGS
 |    Step    |   lambda    |   F.delta   |    enthalpy     | <-- min BFGS
 +------------+-------------+-------------+-----------------+ <-- min BFGS
 |  previous  |    0.000000 |    0.000024 |   -16835.312156 | <-- min BFGS
 | trial step |    1.000000 |    0.000021 |   -16835.312760 | <-- min BFGS
 |  line step |    8.409668 |    0.000000 |   -16835.314857 | <-- min BFGS
 +------------+-------------+-------------+-----------------+ <-- min BFGS
  
 BFGS: finished iteration     2 with enthalpy= -1.68353149E+004 eV
  
 +-----------+-----------------+-----------------+------------+-----+ <-- BFGS
 | Parameter |      value      |    tolerance    |    units   | OK? | <-- BFGS
 +-----------+-----------------+-----------------+------------+-----+ <-- BFGS
 |  dE/ion   |   6.751637E-005 |   2.000000E-007 |         eV | No  | <-- BFGS
 |  |F|max   |   8.880548E-002 |   1.000000E-003 |       eV/A | No  | <-- BFGS
 |  |dR|max  |   5.089002E-003 |   1.000000E-003 |          A | No  | <-- BFGS
 +-----------+-----------------+-----------------+------------+-----+ <-- BFGS
  

================================================================================
 Starting BFGS iteration          3 ...
================================================================================
 
Writing model to jadeite_4_30_GPa_cij__1__4.check
  
 +------------+-------------+-------------+-----------------+ <-- min BFGS
 |    Step    |   lambda    |   F.delta   |    enthalpy     | <-- min BFGS
 +------------+-------------+-------------+-----------------+ <-- min BFGS
 |  previous  |    0.000000 |    0.000018 |   -16835.314857 | <-- min BFGS
 +------------+-------------+-------------+-----------------+ <-- min BFGS
  

--------------------------------------------------------------------------------
 BFGS: starting iteration         3 with trial guess (lambda=  1.000000)
--------------------------------------------------------------------------------
 
                           -------------------------------
                                     Cell Contents
                           -------------------------------
 
            xxxxxxxxxxxxxxxxxxxxxxxxxxxxxxxxxxxxxxxxxxxxxxxxxxxxxxxxxxxx
            x  Element    Atom        Fractional coordinates of atoms  x
            x            Number           u          v          w      x
            x----------------------------------------------------------x
            x  O            1         0.108821   0.077099   0.129170   x
            x  O            2         0.608822   0.577098   0.129172   x
            x  O            3         0.891202   0.077004   0.370956   x
            x  O            4         0.391201   0.577002   0.370954   x
            x  O            5         0.891179   0.922901   0.870830   x
            x  O            6         0.391178   0.422902   0.870828   x
            x  O            7         0.108798   0.922996   0.629044   x
            x  O            8         0.608799   0.422998   0.629046   x
            x  O            9         0.361046   0.264034   0.296005   x
            x  O           10         0.861045   0.764034   0.296004   x
            x  O           11         0.639167   0.263816   0.204810   x
            x  O           12         0.139167   0.763816   0.204810   x
            x  O           13         0.638954   0.735966   0.703995   x
            x  O           14         0.138955   0.235966   0.703996   x
            x  O           15         0.360833   0.736184   0.795190   x
            x  O           16         0.860833   0.236184   0.795190   x
            x  O           17         0.354873   0.008550   1.005664   x
            x  O           18         0.854876   0.508547   1.005673   x
            x  O           19         0.645625   0.008483   0.494827   x
            x  O           20         0.145623   0.508480   0.494818   x
            x  O           21         0.645127   0.991450  -0.005664   x
            x  O           22         0.145124   0.491453  -0.005673   x
            x  O           23         0.354375   0.991517   0.505173   x
            x  O           24         0.854377   0.491520   0.505182   x
            x  Na           1        -0.000167   0.301068   0.250026   x
            x  Na           2         0.499833   0.801071   0.250026   x
            x  Na           3         0.000167   0.698932   0.749974   x
            x  Na           4         0.500167   0.198929   0.749974   x
            x  Al           1        -0.000218   0.906610   0.249823   x
            x  Al           2         0.499782   0.406610   0.249823   x
            x  Al           3         0.000218   0.093390   0.750177   x
            x  Al           4         0.500218   0.593390   0.750177   x
            x  Si           1         0.291234   0.093815   0.229244   x
            x  Si           2         0.791235   0.593815   0.229249   x
            x  Si           3         0.708738   0.093735   0.272533   x
            x  Si           4         0.208736   0.593735   0.272528   x
            x  Si           5         0.708766   0.906185   0.770756   x
            x  Si           6         0.208765   0.406185   0.770751   x
            x  Si           7         0.291262   0.906265   0.727467   x
            x  Si           8         0.791264   0.406265   0.727472   x
            xxxxxxxxxxxxxxxxxxxxxxxxxxxxxxxxxxxxxxxxxxxxxxxxxxxxxxxxxxxx
 
 
------------------------------------------------------------------------ <-- SCF
SCF loop      Energy                           Energy gain       Timer   <-- SCF
                                               per atom          (sec)   <-- SCF
------------------------------------------------------------------------ <-- SCF
Initial  -1.68460042E+004                                        537.88  <-- SCF
      1  -1.68460063E+004                    5.16045667E-005     558.62  <-- SCF
      2  -1.68460063E+004                    2.11540292E-008     577.92  <-- SCF
      3  -1.68460063E+004                    1.56921656E-010     598.70  <-- SCF
      4  -1.68460063E+004                    3.78963093E-012     619.34  <-- SCF
------------------------------------------------------------------------ <-- SCF
 
Final energy =  -16846.00629284     eV
(energy not corrected for finite basis set)
 
 
 *********************************** Forces ***********************************
 *                                                                            *
 *                        Cartesian components (eV/A)                         *
 * -------------------------------------------------------------------------- *
 *                   x                    y                    z              *
 *                                                                            *
 * O         1      0.01713              0.00927              0.01129         *
 * O         2      0.01715              0.00934              0.01129         *
 * O         3     -0.01626             -0.00776             -0.00507         *
 * O         4     -0.01628             -0.00769             -0.00507         *
 * O         5     -0.01713             -0.00927             -0.01129         *
 * O         6     -0.01715             -0.00934             -0.01129         *
 * O         7      0.01626              0.00776              0.00507         *
 * O         8      0.01628              0.00769              0.00507         *
 * O         9     -0.01875              0.00812              0.03792         *
 * O        10     -0.01870              0.00814              0.03794         *
 * O        11      0.02055              0.00583              0.02234         *
 * O        12      0.02051              0.00586              0.02231         *
 * O        13      0.01875             -0.00812             -0.03792         *
 * O        14      0.01870             -0.00814             -0.03794         *
 * O        15     -0.02055             -0.00583             -0.02234         *
 * O        16     -0.02051             -0.00586             -0.02231         *
 * O        17     -0.00044              0.00841              0.00615         *
 * O        18     -0.00056              0.00845              0.00610         *
 * O        19     -0.02578              0.00509             -0.00784         *
 * O        20     -0.02566              0.00513             -0.00779         *
 * O        21      0.00044             -0.00841             -0.00615         *
 * O        22      0.00056             -0.00845             -0.00610         *
 * O        23      0.02578             -0.00509              0.00784         *
 * O        24      0.02566             -0.00513              0.00779         *
 * Na        1     -0.02637             -0.01375              0.00077         *
 * Na        2     -0.02637             -0.01384              0.00076         *
 * Na        3      0.02637              0.01375             -0.00077         *
 * Na        4      0.02637              0.01384             -0.00076         *
 * Al        1     -0.00875             -0.00127             -0.00130         *
 * Al        2     -0.00875             -0.00128             -0.00130         *
 * Al        3      0.00875              0.00127              0.00130         *
 * Al        4      0.00875              0.00128              0.00130         *
 * Si        1      0.04378              0.01355             -0.05013         *
 * Si        2      0.04367              0.01348             -0.05016         *
 * Si        3     -0.05497             -0.00266             -0.06033         *
 * Si        4     -0.05486             -0.00273             -0.06029         *
 * Si        5     -0.04378             -0.01355              0.05013         *
 * Si        6     -0.04367             -0.01348              0.05016         *
 * Si        7      0.05497              0.00266              0.06033         *
 * Si        8      0.05486              0.00273              0.06029         *
 *                                                                            *
 ******************************************************************************
  
 +------------+-------------+-------------+-----------------+ <-- min BFGS
 |    Step    |   lambda    |   F.delta   |    enthalpy     | <-- min BFGS
 +------------+-------------+-------------+-----------------+ <-- min BFGS
 |  previous  |    0.000000 |    0.000018 |   -16835.314857 | <-- min BFGS
 | trial step |    1.000000 |    0.000014 |   -16835.315285 | <-- min BFGS
 +------------+-------------+-------------+-----------------+ <-- min BFGS
  

--------------------------------------------------------------------------------
 BFGS: improving iteration         3 with line minimization (lambda=  4.049573)
--------------------------------------------------------------------------------
 
                           -------------------------------
                                     Cell Contents
                           -------------------------------
 
            xxxxxxxxxxxxxxxxxxxxxxxxxxxxxxxxxxxxxxxxxxxxxxxxxxxxxxxxxxxx
            x  Element    Atom        Fractional coordinates of atoms  x
            x            Number           u          v          w      x
            x----------------------------------------------------------x
            x  O            1         0.108911   0.077154   0.129300   x
            x  O            2         0.608912   0.577153   0.129302   x
            x  O            3         0.891103   0.077022   0.370891   x
            x  O            4         0.391103   0.577021   0.370890   x
            x  O            5         0.891089   0.922846   0.870700   x
            x  O            6         0.391088   0.422847   0.870698   x
            x  O            7         0.108897   0.922978   0.629109   x
            x  O            8         0.608897   0.422979   0.629110   x
            x  O            9         0.361008   0.264063   0.296206   x
            x  O           10         0.861008   0.764063   0.296205   x
            x  O           11         0.639227   0.263849   0.204937   x
            x  O           12         0.139227   0.763850   0.204937   x
            x  O           13         0.638992   0.735937   0.703794   x
            x  O           14         0.138992   0.235937   0.703795   x
            x  O           15         0.360773   0.736151   0.795063   x
            x  O           16         0.860773   0.236150   0.795063   x
            x  O           17         0.354991   0.008579   1.005783   x
            x  O           18         0.854993   0.508576   1.005791   x
            x  O           19         0.645489   0.008493   0.494764   x
            x  O           20         0.145488   0.508490   0.494755   x
            x  O           21         0.645009   0.991421  -0.005783   x
            x  O           22         0.145007   0.491424  -0.005791   x
            x  O           23         0.354511   0.991507   0.505236   x
            x  O           24         0.854512   0.491510   0.505245   x
            x  Na           1        -0.000237   0.301008   0.249995   x
            x  Na           2         0.499763   0.801011   0.249995   x
            x  Na           3         0.000237   0.698992   0.750005   x
            x  Na           4         0.500237   0.198989   0.750005   x
            x  Al           1        -0.000270   0.906685   0.249781   x
            x  Al           2         0.499730   0.406685   0.249781   x
            x  Al           3         0.000270   0.093315   0.750219   x
            x  Al           4         0.500270   0.593315   0.750219   x
            x  Si           1         0.291229   0.093858   0.229082   x
            x  Si           2         0.791230   0.593857   0.229087   x
            x  Si           3         0.708744   0.093707   0.272331   x
            x  Si           4         0.208743   0.593706   0.272326   x
            x  Si           5         0.708771   0.906142   0.770918   x
            x  Si           6         0.208770   0.406143   0.770913   x
            x  Si           7         0.291256   0.906293   0.727669   x
            x  Si           8         0.791257   0.406294   0.727674   x
            xxxxxxxxxxxxxxxxxxxxxxxxxxxxxxxxxxxxxxxxxxxxxxxxxxxxxxxxxxxx
 
 
------------------------------------------------------------------------ <-- SCF
SCF loop      Energy                           Energy gain       Timer   <-- SCF
                                               per atom          (sec)   <-- SCF
------------------------------------------------------------------------ <-- SCF
Initial  -1.68459908E+004                                        628.18  <-- SCF
      1  -1.68460068E+004                    4.00204824E-004     648.21  <-- SCF
      2  -1.68460069E+004                    1.61432554E-007     667.94  <-- SCF
      3  -1.68460069E+004                    1.23294482E-009     688.33  <-- SCF
      4  -1.68460069E+004                    2.71461317E-011     709.81  <-- SCF
------------------------------------------------------------------------ <-- SCF
 
Final energy =  -16846.00685340     eV
(energy not corrected for finite basis set)
 
 
 *********************************** Forces ***********************************
 *                                                                            *
 *                        Cartesian components (eV/A)                         *
 * -------------------------------------------------------------------------- *
 *                   x                    y                    z              *
 *                                                                            *
 * O         1     -0.01942              0.00045             -0.00105         *
 * O         2     -0.01944              0.00050             -0.00105         *
 * O         3      0.02095             -0.02034             -0.01197         *
 * O         4      0.02098             -0.02029             -0.01197         *
 * O         5      0.01942             -0.00045              0.00105         *
 * O         6      0.01944             -0.00050              0.00105         *
 * O         7     -0.02095              0.02034              0.01197         *
 * O         8     -0.02098              0.02029              0.01197         *
 * O         9     -0.01287              0.02214              0.02214         *
 * O        10     -0.01288              0.02208              0.02217         *
 * O        11      0.01183              0.00710              0.01241         *
 * O        12      0.01184              0.00704              0.01239         *
 * O        13      0.01287             -0.02214             -0.02214         *
 * O        14      0.01288             -0.02208             -0.02217         *
 * O        15     -0.01183             -0.00710             -0.01241         *
 * O        16     -0.01184             -0.00704             -0.01239         *
 * O        17     -0.00655              0.00662             -0.00183         *
 * O        18     -0.00667              0.00665             -0.00188         *
 * O        19      0.00299              0.00339             -0.01434         *
 * O        20      0.00310              0.00342             -0.01429         *
 * O        21      0.00655             -0.00662              0.00183         *
 * O        22      0.00667             -0.00665              0.00188         *
 * O        23     -0.00299             -0.00339              0.01434         *
 * O        24     -0.00310             -0.00342              0.01429         *
 * Na        1     -0.02397             -0.00825              0.00515         *
 * Na        2     -0.02397             -0.00832              0.00514         *
 * Na        3      0.02397              0.00825             -0.00515         *
 * Na        4      0.02397              0.00832             -0.00514         *
 * Al        1      0.00073             -0.01791              0.00271         *
 * Al        2      0.00073             -0.01795              0.00271         *
 * Al        3     -0.00073              0.01791             -0.00271         *
 * Al        4     -0.00073              0.01795             -0.00271         *
 * Si        1      0.08226             -0.00184              0.00837         *
 * Si        2      0.08226             -0.00181              0.00834         *
 * Si        3     -0.09741             -0.00390             -0.00446         *
 * Si        4     -0.09741             -0.00388             -0.00443         *
 * Si        5     -0.08226              0.00184             -0.00837         *
 * Si        6     -0.08226              0.00181             -0.00834         *
 * Si        7      0.09741              0.00390              0.00446         *
 * Si        8      0.09741              0.00388              0.00443         *
 *                                                                            *
 ******************************************************************************
  
 +------------+-------------+-------------+-----------------+ <-- min BFGS
 |    Step    |   lambda    |   F.delta   |    enthalpy     | <-- min BFGS
 +------------+-------------+-------------+-----------------+ <-- min BFGS
 |  previous  |    0.000000 |    0.000018 |   -16835.314857 | <-- min BFGS
 | trial step |    1.000000 |    0.000014 |   -16835.315285 | <-- min BFGS
 |  line step |    4.049573 |    0.000000 |   -16835.315846 | <-- min BFGS
 +------------+-------------+-------------+-----------------+ <-- min BFGS
  
 BFGS: finished iteration     3 with enthalpy= -1.68353158E+004 eV
  
 +-----------+-----------------+-----------------+------------+-----+ <-- BFGS
 | Parameter |      value      |    tolerance    |    units   | OK? | <-- BFGS
 +-----------+-----------------+-----------------+------------+-----+ <-- BFGS
 |  dE/ion   |   2.471462E-005 |   2.000000E-007 |         eV | No  | <-- BFGS
 |  |F|max   |   9.759394E-002 |   1.000000E-003 |       eV/A | No  | <-- BFGS
 |  |dR|max  |   1.626307E-003 |   1.000000E-003 |          A | No  | <-- BFGS
 +-----------+-----------------+-----------------+------------+-----+ <-- BFGS
  

================================================================================
 Starting BFGS iteration          4 ...
[...]
            x  O           20         0.144917   0.508130   0.493907   x
            x  O           21         0.644548   0.991025  -0.006772   x
            x  O           22         0.144548   0.491025  -0.006772   x
            x  O           23         0.355083   0.991870   0.506092   x
            x  O           24         0.855083   0.491870   0.506093   x
            x  Na           1        -0.001897   0.300212   0.250439   x
            x  Na           2         0.498103   0.800212   0.250439   x
            x  Na           3         0.001897   0.699788   0.749561   x
            x  Na           4         0.501897   0.199788   0.749561   x
            x  Al           1        -0.000242   0.906747   0.249866   x
            x  Al           2         0.499758   0.406747   0.249866   x
            x  Al           3         0.000242   0.093253   0.750134   x
            x  Al           4         0.500242   0.593253   0.750134   x
            x  Si           1         0.291659   0.094216   0.230082   x
            x  Si           2         0.791659   0.594216   0.230082   x
            x  Si           3         0.707991   0.093177   0.271396   x
            x  Si           4         0.207991   0.593177   0.271396   x
            x  Si           5         0.708341   0.905784   0.769918   x
            x  Si           6         0.208341   0.405784   0.769918   x
            x  Si           7         0.292009   0.906823   0.728604   x
            x  Si           8         0.792009   0.406823   0.728604   x
            xxxxxxxxxxxxxxxxxxxxxxxxxxxxxxxxxxxxxxxxxxxxxxxxxxxxxxxxxxxx
 
 
 BFGS: Final Enthalpy     = -1.68353191E+004 eV
 BFGS: Final <frequency>  =     990.88120 cm-1
 
 ***************************** Symmetrised Forces *****************************
 *                                                                            *
 *                        Cartesian components (eV/A)                         *
 * -------------------------------------------------------------------------- *
 *                   x                    y                    z              *
 *                                                                            *
 * O         1     -0.00035              0.00015             -0.00044         *
 * O         2     -0.00036              0.00015             -0.00044         *
 * O         3     -0.00031              0.00027             -0.00026         *
 * O         4     -0.00030              0.00027             -0.00026         *
 * O         5      0.00035             -0.00015              0.00044         *
 * O         6      0.00036             -0.00015              0.00044         *
 * O         7      0.00031             -0.00027              0.00026         *
 * O         8      0.00030             -0.00027              0.00026         *
 * O         9      0.00008             -0.00007             -0.00019         *
 * O        10      0.00008             -0.00008             -0.00019         *
 * O        11      0.00021              0.00003              0.00039         *
 * O        12      0.00022              0.00001              0.00039         *
 * O        13     -0.00008              0.00007              0.00019         *
 * O        14     -0.00008              0.00008              0.00019         *
 * O        15     -0.00021             -0.00003             -0.00039         *
 * O        16     -0.00022             -0.00001             -0.00039         *
 * O        17     -0.00027             -0.00025             -0.00027         *
 * O        18     -0.00027             -0.00025             -0.00027         *
 * O        19     -0.00030              0.00003             -0.00027         *
 * O        20     -0.00030              0.00003             -0.00027         *
 * O        21      0.00027              0.00025              0.00027         *
 * O        22      0.00027              0.00025              0.00027         *
 * O        23      0.00030             -0.00003              0.00027         *
 * O        24      0.00030             -0.00003              0.00027         *
 * Na        1     -0.00028             -0.00047             -0.00032         *
 * Na        2     -0.00028             -0.00047             -0.00031         *
 * Na        3      0.00028              0.00047              0.00032         *
 * Na        4      0.00028              0.00047              0.00031         *
 * Al        1     -0.00008             -0.00008             -0.00095         *
 * Al        2     -0.00008             -0.00009             -0.00095         *
 * Al        3      0.00008              0.00008              0.00095         *
 * Al        4      0.00008              0.00009              0.00095         *
 * Si        1     -0.00056              0.00008             -0.00013         *
 * Si        2     -0.00054              0.00010             -0.00013         *
 * Si        3     -0.00037              0.00004              0.00039         *
 * Si        4     -0.00038              0.00006              0.00039         *
 * Si        5      0.00056             -0.00008              0.00013         *
 * Si        6      0.00054             -0.00010              0.00013         *
 * Si        7      0.00037             -0.00004             -0.00039         *
 * Si        8      0.00038             -0.00006             -0.00039         *
 *                                                                            *
 ******************************************************************************
 
 *********** Symmetrised Stress Tensor ***********
 *                                               *
 *          Cartesian components (GPa)           *
 * --------------------------------------------- *
 *             x             y             z     *
 *                                               *
 *  x     -6.126952     -0.090838     -0.021594  *
 *  y     -0.090838     -4.761445     -0.676556  *
 *  z     -0.021594     -0.676556     -4.609803  *
 *                                               *
 *  Pressure:    5.1661                          *
 *                                               *
 *************************************************
 
 Pseudo atomic calculation performed for O 2s2 2p4
 
 Converged in 36 iterations to a total energy of -429.6485 eV
 
 
 Pseudo atomic calculation performed for Na 2s2 2p6 3s1
 
 Converged in 33 iterations to a total energy of -1302.8467 eV
 
 
 Pseudo atomic calculation performed for Al 3s2 3p1
 
 Converged in 20 iterations to a total energy of -52.7392 eV
 
 
 Pseudo atomic calculation performed for Si 3s2 3p2
 
 Converged in 21 iterations to a total energy of -101.9044 eV
 
Charge spilling parameter for spin component 1 = 0.85%
 
     Atomic Populations (Mulliken)
     -----------------------------
Species   Ion     s      p      d      f     Total  Charge (e)
==============================================================
  O        1     1.85   5.24   0.00   0.00   7.08    -1.08
  O        2     1.85   5.24   0.00   0.00   7.08    -1.08
  O        3     1.84   5.24   0.00   0.00   7.09    -1.09
  O        4     1.84   5.24   0.00   0.00   7.09    -1.09
  O        5     1.85   5.24   0.00   0.00   7.08    -1.08
  O        6     1.85   5.24   0.00   0.00   7.08    -1.08
  O        7     1.84   5.24   0.00   0.00   7.09    -1.09
  O        8     1.84   5.24   0.00   0.00   7.09    -1.09
  O        9     1.84   5.29   0.00   0.00   7.12    -1.12
  O       10     1.84   5.29   0.00   0.00   7.12    -1.12
  O       11     1.84   5.29   0.00   0.00   7.12    -1.12
  O       12     1.84   5.29   0.00   0.00   7.12    -1.12
  O       13     1.84   5.29   0.00   0.00   7.12    -1.12
  O       14     1.84   5.29   0.00   0.00   7.12    -1.12
  O       15     1.84   5.29   0.00   0.00   7.12    -1.12
  O       16     1.84   5.29   0.00   0.00   7.12    -1.12
  O       17     1.83   5.30   0.00   0.00   7.12    -1.12
  O       18     1.83   5.30   0.00   0.00   7.12    -1.12
  O       19     1.83   5.30   0.00   0.00   7.12    -1.12
  O       20     1.83   5.30   0.00   0.00   7.12    -1.12
  O       21     1.83   5.30   0.00   0.00   7.12    -1.12
  O       22     1.83   5.30   0.00   0.00   7.12    -1.12
  O       23     1.83   5.30   0.00   0.00   7.12    -1.12
  O       24     1.83   5.30   0.00   0.00   7.12    -1.12
  Na       1     2.04   5.77   0.00   0.00   7.81     1.19
  Na       2     2.04   5.77   0.00   0.00   7.81     1.19
  Na       3     2.04   5.77   0.00   0.00   7.81     1.19
  Na       4     2.04   5.77   0.00   0.00   7.81     1.19
  Al       1     0.51   0.92   0.00   0.00   1.42     1.58
  Al       2     0.51   0.92   0.00   0.00   1.42     1.58
  Al       3     0.51   0.92   0.00   0.00   1.42     1.58
  Al       4     0.51   0.92   0.00   0.00   1.42     1.58
  Si       1     0.69   1.36   0.00   0.00   2.05     1.95
  Si       2     0.69   1.36   0.00   0.00   2.05     1.95
  Si       3     0.69   1.36   0.00   0.00   2.05     1.95
  Si       4     0.69   1.36   0.00   0.00   2.05     1.95
  Si       5     0.69   1.36   0.00   0.00   2.05     1.95
  Si       6     0.69   1.36   0.00   0.00   2.05     1.95
  Si       7     0.69   1.36   0.00   0.00   2.05     1.95
  Si       8     0.69   1.36   0.00   0.00   2.05     1.95
==============================================================
 
     Bond                     Population      Length (A)
============================================================
   O 009 --   Si 001               0.77        1.59030
   O 013 --   Si 005               0.77        1.59030
   O 010 --   Si 002               0.77        1.59030
   O 014 --   Si 006               0.77        1.59030
   O 011 --   Si 003               0.77        1.59165
   O 015 --   Si 007               0.77        1.59165
   O 012 --   Si 004               0.77        1.59166
   O 016 --   Si 008               0.77        1.59166
   O 022 --   Si 006               0.56        1.62871
   O 018 --   Si 002               0.56        1.62871
   O 017 --   Si 001               0.56        1.62871
   O 021 --   Si 005               0.56        1.62871
   O 024 --   Si 008               0.56        1.62998
   O 020 --   Si 004               0.56        1.62998
   O 023 --   Si 007               0.56        1.62998
   O 019 --   Si 003               0.56        1.62998
   O 002 --   Si 002               0.60        1.63355
   O 006 --   Si 006               0.60        1.63355
   O 005 --   Si 005               0.60        1.63355
   O 001 --   Si 001               0.60        1.63355
   O 004 --   Si 004               0.60        1.63399
   O 008 --   Si 008               0.60        1.63399
   O 003 --   Si 003               0.60        1.63399
   O 007 --   Si 007               0.60        1.63399
   O 018 --   Si 008               0.58        1.63908
   O 022 --   Si 004               0.58        1.63908
   O 017 --   Si 007               0.58        1.63908
   O 021 --   Si 003               0.58        1.63908
   O 020 --   Si 006               0.58        1.64178
   O 024 --   Si 002               0.58        1.64178
   O 023 --   Si 001               0.58        1.64178
   O 019 --   Si 005               0.58        1.64178
   O 012 --   Al 001               0.42        1.85128
   O 016 --   Al 003               0.42        1.85128
   O 015 --   Al 004               0.42        1.85128
   O 011 --   Al 002               0.42        1.85128
   O 010 --   Al 001               0.42        1.85312
   O 014 --   Al 003               0.42        1.85312
   O 013 --   Al 004               0.42        1.85312
   O 009 --   Al 002               0.42        1.85312
   O 005 --   Al 001               0.32        1.93959
   O 001 --   Al 003               0.32        1.93959
   O 006 --   Al 002               0.32        1.93960
   O 002 --   Al 004               0.32        1.93960
   O 003 --   Al 003               0.32        1.94060
   O 007 --   Al 001               0.32        1.94060
   O 004 --   Al 004               0.32        1.94060
   O 008 --   Al 002               0.32        1.94060
   O 008 --   Al 004               0.32        1.97956
   O 004 --   Al 002               0.32        1.97956
   O 007 --   Al 003               0.32        1.97956
   O 003 --   Al 001               0.32        1.97956
   O 006 --   Al 004               0.31        1.99499
   O 002 --   Al 002               0.31        1.99499
   O 001 --   Al 001               0.31        1.99499
   O 005 --   Al 003               0.31        1.99499
   O 007 --   Na 003              -0.02        2.34118
   O 003 --   Na 001              -0.02        2.34118
   O 008 --   Na 004              -0.02        2.34118
   O 004 --   Na 002              -0.02        2.34118
   O 005 --   Na 003              -0.02        2.34321
   O 001 --   Na 001              -0.02        2.34321
   O 006 --   Na 004              -0.02        2.34321
   O 002 --   Na 002              -0.02        2.34321
   O 020 --   Na 001              -0.04        2.36416
   O 024 --   Na 003              -0.04        2.36416
   O 023 --   Na 004              -0.04        2.36416
   O 019 --   Na 002              -0.04        2.36416
   O 022 --   Na 003              -0.04        2.36416
   O 018 --   Na 001              -0.04        2.36416
   O 021 --   Na 004              -0.04        2.36416
   O 017 --   Na 002              -0.04        2.36416
   O 016 --   Na 001              -0.06        2.39520
   O 012 --   Na 003              -0.06        2.39520
   O 011 --   Na 004              -0.06        2.39520
   O 015 --   Na 002              -0.06        2.39520
   O 014 --   Na 001              -0.05        2.39823
   O 010 --   Na 003              -0.05        2.39823
   O 013 --   Na 002              -0.05        2.39823
   O 009 --   Na 004              -0.05        2.39823
   O 001 --    O 005              -0.11        2.46135
   O 002 --    O 006              -0.11        2.46135
   O 003 --    O 007              -0.11        2.46432
   O 004 --    O 008              -0.11        2.46432
   O 015 --    O 017              -0.10        2.58188
   O 011 --    O 021              -0.10        2.58188
   O 016 --    O 018              -0.10        2.58188
   O 012 --    O 022              -0.10        2.58188
   O 009 --    O 023              -0.10        2.59165
   O 013 --    O 019              -0.10        2.59165
   O 010 --    O 024              -0.10        2.59165
   O 014 --    O 020              -0.10        2.59165
   O 020 --    O 022              -0.17        2.61270
   O 018 --    O 024              -0.17        2.61270
   O 017 --    O 023              -0.17        2.61270
   O 019 --    O 021              -0.17        2.61270
   O 006 --    O 022              -0.09        2.63426
   O 002 --    O 018              -0.09        2.63426
   O 005 --    O 021              -0.09        2.63426
   O 001 --    O 017              -0.09        2.63426
   O 004 --    O 020              -0.09        2.63517
   O 008 --    O 024              -0.09        2.63517
   O 003 --    O 019              -0.09        2.63517
   O 007 --    O 023              -0.09        2.63517
   O 003 --    O 021              -0.08        2.63682
   O 007 --    O 017              -0.08        2.63682
   O 008 --    O 018              -0.08        2.63682
   O 004 --    O 022              -0.08        2.63682
   O 001 --    O 023              -0.08        2.63947
   O 005 --    O 019              -0.08        2.63947
   O 006 --    O 020              -0.08        2.63947
   O 002 --    O 024              -0.08        2.63947
   O 009 --    O 017              -0.09        2.64418
   O 013 --    O 021              -0.09        2.64418
   O 014 --    O 022              -0.09        2.64418
   O 010 --    O 018              -0.09        2.64418
   O 015 --    O 023              -0.08        2.65782
   O 011 --    O 019              -0.08        2.65782
   O 016 --    O 024              -0.08        2.65782
   O 012 --    O 020              -0.08        2.65782
   O 007 --    O 012              -0.08        2.67988
   O 003 --    O 016              -0.08        2.67988
   O 004 --    O 015              -0.08        2.67988
   O 008 --    O 011              -0.08        2.67988
   O 007 --    O 014              -0.06        2.69754
   O 003 --    O 010              -0.06        2.69754
   O 008 --    O 013              -0.06        2.69754
   O 004 --    O 009              -0.06        2.69754
   O 019 --   Na 004              -0.02        2.70139
   O 023 --   Na 002              -0.02        2.70139
   O 020 --   Na 003              -0.02        2.70140
   O 024 --   Na 001              -0.02        2.70140
   O 005 --    O 010              -0.07        2.70258
   O 001 --    O 014              -0.07        2.70258
   O 006 --    O 009              -0.07        2.70258
   O 002 --    O 013              -0.07        2.70258
   O 006 --    O 008              -0.05        2.70494
   O 002 --    O 004              -0.05        2.70494
   O 005 --    O 007              -0.05        2.70494
   O 001 --    O 003              -0.05        2.70494
   O 001 --    O 012              -0.05        2.71710
   O 005 --    O 016              -0.05        2.71710
   O 002 --    O 011              -0.05        2.71710
   O 006 --    O 015              -0.05        2.71710
   O 018 --    O 022              -0.04        2.73002
   O 017 --    O 021              -0.04        2.73002
   O 020 --    O 024              -0.04        2.73456
   O 019 --    O 023              -0.04        2.73456
   O 017 --   Na 004              -0.02        2.73936
   O 021 --   Na 002              -0.02        2.73936
   O 018 --   Na 003              -0.02        2.73936
   O 022 --   Na 001              -0.02        2.73936
   O 008 --    O 016              -0.06        2.76010
   O 004 --    O 012              -0.06        2.76010
   O 007 --    O 015              -0.06        2.76010
   O 003 --    O 011              -0.06        2.76010
   O 002 --    O 010              -0.06        2.76337
   O 006 --    O 014              -0.06        2.76337
   O 005 --    O 013              -0.06        2.76337
   O 001 --    O 009              -0.06        2.76337
   O 013 --    O 015              -0.05        2.78551
   O 009 --    O 011              -0.05        2.78551
   O 010 --    O 012              -0.05        2.78551
   O 014 --    O 016              -0.05        2.78551
   O 007 --    O 010              -0.04        2.79233
   O 003 --    O 014              -0.04        2.79233
   O 004 --    O 013              -0.04        2.79233
   O 008 --    O 009              -0.04        2.79233
   O 005 --    O 012              -0.04        2.80508
   O 001 --    O 016              -0.04        2.80508
   O 006 --    O 011              -0.04        2.80508
   O 002 --    O 015              -0.04        2.80508
   O 016 --    O 019              -0.03        2.90073
   O 012 --    O 023              -0.03        2.90073
   O 011 --    O 024              -0.03        2.90073
   O 015 --    O 020              -0.03        2.90073
   O 014 --    O 017              -0.02        2.90890
   O 010 --    O 021              -0.02        2.90890
   O 009 --    O 022              -0.02        2.90890
   O 013 --    O 018              -0.02        2.90890
   O 004 --    O 006              -0.06        2.93093
   O 002 --    O 008              -0.06        2.93093
   O 003 --    O 005              -0.06        2.93093
   O 001 --    O 007              -0.06        2.93093
============================================================
 
 
Writing model to jadeite_4_30_GPa_cij__1__4.check
 
Writing analysis data to jadeite_4_30_GPa_cij__1__4.castep_bin
Initialisation time =      2.19 s
Calculation time    =   3699.05 s
Finalisation time   =      1.23 s
Total time          =   3702.47 s
Peak Memory Use     = 282372 kB
