 +-------------------------------------------------+
 |                                                 |
 |      CCC   AA    SSS  TTTTT  EEEEE  PPPP        |
 |     C     A  A  S       T    E      P   P       |
 |     C     AAAA   SS     T    EEE    PPPP        |
 |     C     A  A     S    T    E      P           |
 |      CCC  A  A  SSS     T    EEEEE  P           |
 |                                                 |
 +-------------------------------------------------+
 |                                                 |
 | Welcome to Academic Release CASTEP version 5.02 |
 | Ab Initio Total Energy Program                  |
 |                                                 |
 | Authors:                                        |
 | M. Segall, M. Probert, C. Pickard, P. Hasnip,   |
 | S. Clark, K. Refson, M. Payne                   |
 |                                                 |
 | Contributors:                                   |
 | P. Lindan, P. Haynes, J. White, V. Milman,      |
 | N. Govind, M. Gibson, P. Tulip, V. Cocula,      |
 | B. Montanari, D. Quigley, M. Glover,            |
 | L. Bernasconi, A. Perlov, M. Plummer            |
 |                                                 |
 | Copyright (c) 2000 - 2009                       |
 |                                                 |
 |     Distributed under the terms of an           |
 |     Agreement between the United Kingdom        |
 |     Car-Parrinello (UKCP) Consortium,           |
 |     Daresbury Laboratory and Accelrys, Inc.     |
 |                                                 |
 | Please cite                                     |
 |                                                 |
 |     "First principles methods using CASTEP"     |
 |                                                 |
 |         Zeitschrift fuer Kristallographie       |
 |           220(5-6) pp. 567-570 (2005)           |
 |                                                 |
 | S. J. Clark, M. D. Segall, C. J. Pickard,       |
 | P. J. Hasnip, M. J. Probert, K. Refson,         |
 | M. C. Payne                                     |
 |                                                 |
 |       in all publications arising from          |
 |              your use of CASTEP                 |
 |                                                 |
 +-------------------------------------------------+
 
 
 Pseudo atomic calculation performed for O 2s2 2p4
 
 Converged in 36 iterations to a total energy of -429.6485 eV
 
 
 Pseudo atomic calculation performed for Na 2s2 2p6 3s1
 
 Converged in 33 iterations to a total energy of -1302.8467 eV
 
 
 Pseudo atomic calculation performed for Al 3s2 3p1
 
 Converged in 20 iterations to a total energy of -52.7392 eV
 
 
 Pseudo atomic calculation performed for Si 3s2 3p2
 
 Converged in 21 iterations to a total energy of -101.9044 eV
 
Calculation parallelised over   36 nodes.
K-points are distributed over    3 groups, each containing   12 nodes.

 ************************************ Title ************************************
 

 ***************************** General Parameters ******************************
  
 output verbosity                               : normal  (1)
 write checkpoint data to                       : jadeite_4_30_GPa_cij__3__4.check
 type of calculation                            : geometry optimization
 stress calculation                             : on
 density difference calculation                 : off
 electron localisation func (ELF) calculation   : off
 Hirshfeld analysis                             : off
 unlimited duration calculation
 timing information                             : on
 memory usage estimate                          : on
 write final potential to formatted file        : off
 write final density to formatted file          : off
  
 output         length unit                     : A
 output           mass unit                     : amu
 output           time unit                     : ps
 output         charge unit                     : e
 output         energy unit                     : eV
 output          force unit                     : eV/A
 output       velocity unit                     : A/ps
 output       pressure unit                     : GPa
 output     inv_length unit                     : 1/A
 output      frequency unit                     : cm-1
 output force constant unit                     : eV/A**2
 output         volume unit                     : A**3
 output   IR intensity unit                     : (D/A)**2/amu
 output         dipole unit                     : D
 output         efield unit                     : eV/A/e
  
 wavefunctions paging                           : none
 data distribution                              : optimal for this architecture
 optimization strategy                          : maximize speed(+++)

 *********************** Exchange-Correlation Parameters ***********************
  
 using functional                               : Perdew Burke Ernzerhof
 Divergence correction                          : off
 DFT+D: Semi-empirical dispersion correction    : off

 ************************* Pseudopotential Parameters **************************
  
 pseudopotential representation                 : reciprocal space
 <beta|phi> representation                      : reciprocal space

 **************************** Basis Set Parameters *****************************
  
 plane wave basis set cut-off                   :   700.0000   eV
 finite basis set correction                    : none

 **************************** Electronic Parameters ****************************
  
 number of  electrons                           :  224.0    
 net charge of system                           :  0.000    
 net spin   of system                           :  0.000    
 number of  up  spins                           :  112.0    
 number of down spins                           :  112.0    
 treating system as non-spin-polarized
 number of bands                                :        112

 ********************* Electronic Minimization Parameters **********************
  
 Method: Treating system as non-metallic,
         and number of  SD  steps               :          1
         and number of  CG  steps               :          4
  
 total energy / atom convergence tol.           : 0.1000E-07   eV
 max force / atom convergence tol.              : ignored
 convergence tolerance window                   :          3   cycles
 max. number of SCF cycles                      :        100

 *********************** Population Analysis Parameters ************************
  
 Population analysis with cutoff                :  3.000       A

 ********************** Geometry Optimization Parameters ***********************
  
 optimization method                            : BFGS
 variable cell method                           : fixed basis quality
 max. number of steps                           :        300
 estimated bulk modulus                         :  500.0       GPa
 estimated <frequency>                          :  1668.       cm-1
 line minimiser tolerance                       :     0.4000
 total energy convergence tolerance             : 0.2000E-06   eV/atom
        max ionic |force| tolerance             : 0.1000E-02   eV/A
 max ionic |displacement| tolerance             : 0.1000E-02   A
   max |stress component| tolerance             : 0.1000E-02   GPa
 convergence tolerance window                   :          2   steps
 backup results every                           :          1   steps

 *******************************************************************************
  
 
                           -------------------------------
                                      Unit Cell
                           -------------------------------
        Real Lattice(A)                      Reciprocal Lattice(1/A)
   8.9813393   0.0000000  -2.8290832        0.6995822   0.0000000   0.0000000
   0.0000000   8.4936826   0.0000000        0.0000000   0.7397481   0.0000000
   0.0000000   0.0000000   5.2199179        0.3791585   0.0000000   1.2036943
 
                       Lattice parameters(A)       Cell Angles
                    a =    9.416378          alpha =   90.000000
                    b =    8.493683          beta  =  107.484203
                    c =    5.219918          gamma =   90.000000
 
                       Current cell volume =  398.199586       A**3
 
                           -------------------------------
                                     Cell Contents
                           -------------------------------
                         Total number of ions in cell =   40
                      Total number of species in cell =    4
                        Max number of any one species =   24
 
            xxxxxxxxxxxxxxxxxxxxxxxxxxxxxxxxxxxxxxxxxxxxxxxxxxxxxxxxxxxx
            x  Element    Atom        Fractional coordinates of atoms  x
            x            Number           u          v          w      x
            x----------------------------------------------------------x
            x  O            1         0.109277   0.076953   0.129205   x
            x  O            2         0.609279   0.576951   0.129208   x
            x  O            3         0.890723   0.076953   0.370795   x
            x  O            4         0.390721   0.576951   0.370792   x
            x  O            5         0.890723   0.923047   0.870795   x
            x  O            6         0.390721   0.423048   0.870792   x
            x  O            7         0.109277   0.923047   0.629205   x
            x  O            8         0.609279   0.423048   0.629208   x
            x  O            9         0.361047   0.263746   0.295383   x
            x  O           10         0.861046   0.763747   0.295382   x
            x  O           11         0.638953   0.263746   0.204617   x
            x  O           12         0.138954   0.763747   0.204618   x
            x  O           13         0.638953   0.736253   0.704617   x
            x  O           14         0.138954   0.236253   0.704618   x
            x  O           15         0.361047   0.736253   0.795383   x
            x  O           16         0.861046   0.236253   0.795382   x
            x  O           17         0.354029   0.008469   1.005059   x
            x  O           18         0.854032   0.508466   1.005069   x
            x  O           19         0.645971   0.008469   0.494941   x
            x  O           20         0.145968   0.508466   0.494931   x
            x  O           21         0.645971   0.991530  -0.005059   x
            x  O           22         0.145968   0.491534  -0.005069   x
            x  O           23         0.354029   0.991530   0.505059   x
            x  O           24         0.854032   0.491534   0.505069   x
            x  Na           1         0.000000   0.301230   0.250000   x
            x  Na           2         0.500000   0.801234   0.250000   x
            x  Na           3         0.000000   0.698770   0.750000   x
            x  Na           4         0.500000   0.198765   0.750000   x
            x  Al           1         0.000000   0.906276   0.250000   x
            x  Al           2         0.500000   0.406276   0.250000   x
            x  Al           3         0.000000   0.093723   0.750000   x
            x  Al           4         0.500000   0.593723   0.750000   x
            x  Si           1         0.290869   0.093824   0.228100   x
            x  Si           2         0.790871   0.593823   0.228106   x
            x  Si           3         0.709131   0.093824   0.271900   x
            x  Si           4         0.209129   0.593823   0.271894   x
            x  Si           5         0.709131   0.906175   0.771900   x
            x  Si           6         0.209129   0.406176   0.771894   x
            x  Si           7         0.290869   0.906175   0.728100   x
            x  Si           8         0.790871   0.406176   0.728106   x
            xxxxxxxxxxxxxxxxxxxxxxxxxxxxxxxxxxxxxxxxxxxxxxxxxxxxxxxxxxxx
 
 
                         No user defined ionic velocities
 
                           -------------------------------
                                   Details of Species
                           -------------------------------
 
                               Mass of species in AMU
                                    O   15.9994000
                                    Na   22.9897700
                                    Al   26.9815400
                                    Si   28.0855000
 
                          Electric Quadrupole Moment (Barn)
                                    O   -0.0255800 Isotope 17
                                    Na    0.1040000 Isotope 23
                                    Al    0.1466000 Isotope 27
                                    Si    1.0000000 No Isotope Defined
 
                          Files used for pseudopotentials:
                                    O O_00PBE.usp
                                    Na Na_00PBE.usp
                                    Al Al_00PBE.usp
                                    Si Si_00PBE.usp
 
                           -------------------------------
                              k-Points For BZ Sampling
                           -------------------------------
                       MP grid size for SCF calculation is  2  2  3
                         Number of kpoints used = 3
 
             +++++++++++++++++++++++++++++++++++++++++++++++++++++++
             +  Number       Fractional coordinates        Weight  +
             +-----------------------------------------------------+
             +     1  -0.250000  -0.250000   0.333333   0.3333333  +
             +     2   0.250000   0.250000   0.000000   0.3333333  +
             +     3   0.250000   0.250000   0.333333   0.3333333  +
             +++++++++++++++++++++++++++++++++++++++++++++++++++++++
 
                           -------------------------------
                               Symmetry and Constraints
                           -------------------------------
 
                      Number of symmetry operations   = 4
                      Number of ionic constraints     = 3
                      Maximum deviation from symmetry = 0.216106E-14     ANG
               Point group of crystal =     5: C2h, 2/m, 2/m
           Set iprint > 1 for details on symmetry rotations/translations
 
                          Centre of mass is constrained
             Set iprint > 1 for details of linear ionic constraints
 
                         Number of cell constraints= 6
                         Cell constraints are:  0 0 0 0 0 0
 
                         External pressure/stress (GPa)
                          4.30000   0.00000   0.00000
                                    4.30000   0.00000
                                              4.30000
  
+---------------- MEMORY AND SCRATCH DISK ESTIMATES PER NODE -----------------+
|                                                     Memory          Disk    |
| Model and support data                               59.5 MB         0.0 MB |
| Electronic energy minimisation requirements          16.5 MB         0.0 MB |
|                                               ----------------------------- |
| Approx. total storage required per node              76.1 MB         0.0 MB |
|                                                                             |
| Requirements will fluctuate during execution and may exceed these estimates |
+-----------------------------------------------------------------------------+
------------------------------------------------------------------------ <-- SCF
SCF loop      Energy                           Energy gain       Timer   <-- SCF
                                               per atom          (sec)   <-- SCF
------------------------------------------------------------------------ <-- SCF
Initial  -1.68617196E+003                                          5.02  <-- SCF
      1  -1.65252124E+004                    3.70976010E+002      16.47  <-- SCF
      2  -1.68221616E+004                    7.42372992E+000      28.72  <-- SCF
      3  -1.68455141E+004                    5.83812846E-001      41.01  <-- SCF
      4  -1.68459923E+004                    1.19558618E-002      52.56  <-- SCF
      5  -1.68459980E+004                    1.41846721E-004      64.27  <-- SCF
      6  -1.68459981E+004                    3.34431147E-006      75.95  <-- SCF
      7  -1.68459981E+004                    1.06523277E-007      88.41  <-- SCF
      8  -1.68459981E+004                    3.49574118E-009     100.99  <-- SCF
      9  -1.68459981E+004                    1.15158377E-010     112.45  <-- SCF
------------------------------------------------------------------------ <-- SCF
 
Final energy =  -16845.99812587     eV
(energy not corrected for finite basis set)
 
 
Writing model to jadeite_4_30_GPa_cij__3__4.check
 
+---------------- MEMORY AND SCRATCH DISK ESTIMATES PER NODE -----------------+
|                                                     Memory          Disk    |
| Model and support data                               52.8 MB         0.0 MB |
| Geometry minimisation requirements                   19.2 MB         0.0 MB |
|                                               ----------------------------- |
| Approx. total storage required per node              72.0 MB         0.0 MB |
|                                                                             |
| Requirements will fluctuate during execution and may exceed these estimates |
+-----------------------------------------------------------------------------+
 
 
 *********************************** Forces ***********************************
 *                                                                            *
 *                        Cartesian components (eV/A)                         *
 * -------------------------------------------------------------------------- *
 *                   x                    y                    z              *
 *                                                                            *
 * O         1      0.02759              0.04795              0.00643         *
 * O         2      0.02744              0.04801              0.00639         *
 * O         3     -0.02759              0.04795             -0.00643         *
 * O         4     -0.02744              0.04801             -0.00639         *
 * O         5     -0.02759             -0.04795             -0.00643         *
 * O         6     -0.02744             -0.04801             -0.00639         *
 * O         7      0.02759             -0.04795              0.00643         *
 * O         8      0.02744             -0.04801              0.00639         *
 * O         9      0.10531              0.28989              0.02927         *
 * O        10      0.10544              0.28998              0.02927         *
 * O        11     -0.10531              0.28989             -0.02927         *
 * O        12     -0.10544              0.28998             -0.02927         *
 * O        13     -0.10531             -0.28989             -0.02927         *
 * O        14     -0.10544             -0.28998             -0.02927         *
 * O        15      0.10531             -0.28989              0.02927         *
 * O        16      0.10544             -0.28998              0.02927         *
 * O        17      0.03043              0.04122              0.01572         *
 * O        18      0.03037              0.04128              0.01568         *
 * O        19     -0.03043              0.04122             -0.01572         *
 * O        20     -0.03037              0.04128             -0.01568         *
 * O        21     -0.03043             -0.04122             -0.01572         *
 * O        22     -0.03037             -0.04128             -0.01568         *
 * O        23      0.03043             -0.04122              0.01572         *
 * O        24      0.03037             -0.04128              0.01568         *
 * Na        1      0.00000              0.01018              0.00000         *
 * Na        2      0.00000              0.01006              0.00000         *
 * Na        3      0.00000             -0.01018              0.00000         *
 * Na        4      0.00000             -0.01006              0.00000         *
 * Al        1      0.00000              0.06242              0.00000         *
 * Al        2      0.00000              0.06253              0.00000         *
 * Al        3      0.00000             -0.06242              0.00000         *
 * Al        4      0.00000             -0.06253              0.00000         *
 * Si        1     -0.16718             -0.19387             -0.02658         *
 * Si        2     -0.16739             -0.19385             -0.02659         *
 * Si        3      0.16718             -0.19387              0.02658         *
 * Si        4      0.16739             -0.19385              0.02659         *
 * Si        5      0.16718              0.19387              0.02658         *
 * Si        6      0.16739              0.19385              0.02659         *
 * Si        7     -0.16718              0.19387             -0.02658         *
 * Si        8     -0.16739              0.19385             -0.02659         *
 *                                                                            *
 ******************************************************************************
 BFGS: finished iteration     0 with enthalpy= -1.68353110E+004 eV
  
 +-----------+-----------------+-----------------+------------+-----+ <-- BFGS
 | Parameter |      value      |    tolerance    |    units   | OK? | <-- BFGS
 +-----------+-----------------+-----------------+------------+-----+ <-- BFGS
 |  dE/ion   |   0.000000E+000 |   2.000000E-007 |         eV | No  | <-- BFGS
 |  |F|max   |   3.099372E-001 |   1.000000E-003 |       eV/A | No  | <-- BFGS
 |  |dR|max  |   0.000000E+000 |   1.000000E-003 |          A | No  | <-- BFGS
 +-----------+-----------------+-----------------+------------+-----+ <-- BFGS
  

================================================================================
 Starting BFGS iteration          1 ...
================================================================================
 
Writing model to jadeite_4_30_GPa_cij__3__4.check
  
 +------------+-------------+-------------+-----------------+ <-- min BFGS
 |    Step    |   lambda    |   F.delta   |    enthalpy     | <-- min BFGS
 +------------+-------------+-------------+-----------------+ <-- min BFGS
 |  previous  |    0.000000 |    0.000242 |   -16835.311050 | <-- min BFGS
 +------------+-------------+-------------+-----------------+ <-- min BFGS
  

--------------------------------------------------------------------------------
 BFGS: starting iteration         1 with trial guess (lambda=  1.000000)
--------------------------------------------------------------------------------
 
                           -------------------------------
                                     Cell Contents
                           -------------------------------
 
            xxxxxxxxxxxxxxxxxxxxxxxxxxxxxxxxxxxxxxxxxxxxxxxxxxxxxxxxxxxx
            x  Element    Atom        Fractional coordinates of atoms  x
            x            Number           u          v          w      x
            x----------------------------------------------------------x
            x  O            1         0.109292   0.076980   0.129219   x
            x  O            2         0.609294   0.576979   0.129222   x
            x  O            3         0.890708   0.076980   0.370781   x
            x  O            4         0.390706   0.576979   0.370778   x
            x  O            5         0.890708   0.923020   0.870781   x
            x  O            6         0.390706   0.423021   0.870778   x
            x  O            7         0.109292   0.923020   0.629219   x
            x  O            8         0.609294   0.423021   0.629222   x
            x  O            9         0.361104   0.263912   0.295441   x
            x  O           10         0.861103   0.763912   0.295440   x
            x  O           11         0.638896   0.263912   0.204559   x
            x  O           12         0.138897   0.763912   0.204560   x
            x  O           13         0.638896   0.736088   0.704559   x
            x  O           14         0.138897   0.236088   0.704560   x
            x  O           15         0.361104   0.736088   0.795441   x
            x  O           16         0.861103   0.236088   0.795440   x
            x  O           17         0.354045   0.008493   1.005082   x
            x  O           18         0.854048   0.508490   1.005092   x
            x  O           19         0.645955   0.008493   0.494918   x
            x  O           20         0.145952   0.508490   0.494908   x
            x  O           21         0.645955   0.991507  -0.005082   x
            x  O           22         0.145952   0.491510  -0.005092   x
            x  O           23         0.354045   0.991507   0.505082   x
            x  O           24         0.854048   0.491510   0.505092   x
            x  Na           1         0.000000   0.301236   0.250000   x
            x  Na           2         0.500000   0.801240   0.250000   x
            x  Na           3         0.000000   0.698764   0.750000   x
            x  Na           4         0.500000   0.198760   0.750000   x
            x  Al           1         0.000000   0.906312   0.250000   x
            x  Al           2         0.500000   0.406312   0.250000   x
            x  Al           3         0.000000   0.093688   0.750000   x
            x  Al           4         0.500000   0.593688   0.750000   x
            x  Si           1         0.290779   0.093714   0.228027   x
            x  Si           2         0.790781   0.593713   0.228033   x
            x  Si           3         0.709221   0.093714   0.271973   x
            x  Si           4         0.209219   0.593713   0.271967   x
            x  Si           5         0.709221   0.906286   0.771973   x
            x  Si           6         0.209219   0.406287   0.771967   x
            x  Si           7         0.290779   0.906286   0.728027   x
            x  Si           8         0.790781   0.406287   0.728033   x
            xxxxxxxxxxxxxxxxxxxxxxxxxxxxxxxxxxxxxxxxxxxxxxxxxxxxxxxxxxxx
 
 
------------------------------------------------------------------------ <-- SCF
SCF loop      Energy                           Energy gain       Timer   <-- SCF
                                               per atom          (sec)   <-- SCF
------------------------------------------------------------------------ <-- SCF
Initial  -1.68459863E+004                                        119.05  <-- SCF
      1  -1.68460035E+004                    4.31404981E-004     132.26  <-- SCF
      2  -1.68460035E+004                    1.81838170E-007     144.57  <-- SCF
      3  -1.68460035E+004                    2.28731295E-009     157.45  <-- SCF
      4  -1.68460035E+004                    4.77184139E-011     170.09  <-- SCF
------------------------------------------------------------------------ <-- SCF
 
Final energy =  -16846.00353180     eV
(energy not corrected for finite basis set)
 
 
 *********************************** Forces ***********************************
 *                                                                            *
 *                        Cartesian components (eV/A)                         *
 * -------------------------------------------------------------------------- *
 *                   x                    y                    z              *
 *                                                                            *
 * O         1      0.00790              0.04169              0.01067         *
 * O         2      0.00775              0.04175              0.01064         *
 * O         3     -0.00790              0.04169             -0.01067         *
 * O         4     -0.00775              0.04175             -0.01064         *
 * O         5     -0.00790             -0.04169             -0.01067         *
 * O         6     -0.00775             -0.04175             -0.01064         *
 * O         7      0.00790             -0.04169              0.01067         *
 * O         8      0.00775             -0.04175              0.01064         *
 * O         9      0.06000              0.19996              0.02781         *
 * O        10      0.06010              0.20000              0.02781         *
 * O        11     -0.06000              0.19996             -0.02781         *
 * O        12     -0.06010              0.20000             -0.02781         *
 * O        13     -0.06000             -0.19996             -0.02781         *
 * O        14     -0.06010             -0.20000             -0.02781         *
 * O        15      0.06000             -0.19996              0.02781         *
 * O        16      0.06010             -0.20000              0.02781         *
 * O        17      0.02948              0.03326              0.00723         *
 * O        18      0.02941              0.03332              0.00718         *
 * O        19     -0.02948              0.03326             -0.00723         *
 * O        20     -0.02941              0.03332             -0.00718         *
 * O        21     -0.02948             -0.03326             -0.00723         *
 * O        22     -0.02941             -0.03332             -0.00718         *
 * O        23      0.02948             -0.03326              0.00723         *
 * O        24      0.02941             -0.03332              0.00718         *
 * Na        1      0.00000              0.00953              0.00000         *
 * Na        2      0.00000              0.00942              0.00000         *
 * Na        3      0.00000             -0.00953              0.00000         *
 * Na        4      0.00000             -0.00942              0.00000         *
 * Al        1      0.00000              0.05479              0.00000         *
 * Al        2      0.00000              0.05487              0.00000         *
 * Al        3      0.00000             -0.05479              0.00000         *
 * Al        4      0.00000             -0.05487              0.00000         *
 * Si        1     -0.10839             -0.09946             -0.01245         *
 * Si        2     -0.10855             -0.09942             -0.01246         *
 * Si        3      0.10839             -0.09946              0.01245         *
 * Si        4      0.10855             -0.09942              0.01246         *
 * Si        5      0.10839              0.09946              0.01245         *
 * Si        6      0.10855              0.09942              0.01246         *
 * Si        7     -0.10839              0.09946             -0.01245         *
 * Si        8     -0.10855              0.09942             -0.01246         *
 *                                                                            *
 ******************************************************************************
  
 +------------+-------------+-------------+-----------------+ <-- min BFGS
 |    Step    |   lambda    |   F.delta   |    enthalpy     | <-- min BFGS
 +------------+-------------+-------------+-----------------+ <-- min BFGS
 |  previous  |    0.000000 |    0.000242 |   -16835.311050 | <-- min BFGS
 | trial step |    1.000000 |    0.000155 |   -16835.316456 | <-- min BFGS
 +------------+-------------+-------------+-----------------+ <-- min BFGS
  

--------------------------------------------------------------------------------
 BFGS: improving iteration         1 with line minimization (lambda=  2.792846)
--------------------------------------------------------------------------------
 
                           -------------------------------
                                     Cell Contents
                           -------------------------------
 
            xxxxxxxxxxxxxxxxxxxxxxxxxxxxxxxxxxxxxxxxxxxxxxxxxxxxxxxxxxxx
            x  Element    Atom        Fractional coordinates of atoms  x
            x            Number           u          v          w      x
            x----------------------------------------------------------x
            x  O            1         0.109318   0.077029   0.129244   x
            x  O            2         0.609320   0.577028   0.129247   x
            x  O            3         0.890682   0.077029   0.370756   x
            x  O            4         0.390680   0.577028   0.370753   x
            x  O            5         0.890682   0.922971   0.870756   x
            x  O            6         0.390680   0.422972   0.870753   x
            x  O            7         0.109318   0.922971   0.629244   x
            x  O            8         0.609320   0.422972   0.629247   x
            x  O            9         0.361205   0.264207   0.295545   x
            x  O           10         0.861205   0.764208   0.295544   x
            x  O           11         0.638795   0.264207   0.204455   x
            x  O           12         0.138795   0.764208   0.204456   x
            x  O           13         0.638795   0.735793   0.704455   x
            x  O           14         0.138795   0.235792   0.704456   x
            x  O           15         0.361205   0.735793   0.795545   x
            x  O           16         0.861205   0.235792   0.795544   x
            x  O           17         0.354075   0.008535   1.005124   x
            x  O           18         0.854078   0.508532   1.005134   x
            x  O           19         0.645925   0.008535   0.494876   x
            x  O           20         0.145922   0.508532   0.494866   x
            x  O           21         0.645925   0.991465  -0.005124   x
            x  O           22         0.145922   0.491468  -0.005134   x
            x  O           23         0.354075   0.991465   0.505124   x
            x  O           24         0.854078   0.491468   0.505134   x
            x  Na           1         0.000000   0.301246   0.250000   x
            x  Na           2         0.500000   0.801250   0.250000   x
            x  Na           3         0.000000   0.698754   0.750000   x
            x  Na           4         0.500000   0.198750   0.750000   x
            x  Al           1         0.000000   0.906376   0.250000   x
            x  Al           2         0.500000   0.406376   0.250000   x
            x  Al           3         0.000000   0.093624   0.750000   x
            x  Al           4         0.500000   0.593624   0.750000   x
            x  Si           1         0.290618   0.093516   0.227895   x
            x  Si           2         0.790619   0.593515   0.227901   x
            x  Si           3         0.709382   0.093516   0.272105   x
            x  Si           4         0.209381   0.593515   0.272099   x
            x  Si           5         0.709382   0.906484   0.772105   x
            x  Si           6         0.209381   0.406485   0.772099   x
            x  Si           7         0.290618   0.906484   0.727895   x
            x  Si           8         0.790619   0.406485   0.727901   x
            xxxxxxxxxxxxxxxxxxxxxxxxxxxxxxxxxxxxxxxxxxxxxxxxxxxxxxxxxxxx
 
 
------------------------------------------------------------------------ <-- SCF
SCF loop      Energy                           Energy gain       Timer   <-- SCF
                                               per atom          (sec)   <-- SCF
------------------------------------------------------------------------ <-- SCF
Initial  -1.68459529E+004                                        175.81  <-- SCF
      1  -1.68460074E+004                    1.36054653E-003     188.36  <-- SCF
      2  -1.68460074E+004                    6.07032826E-007     200.29  <-- SCF
      3  -1.68460074E+004                    8.01715757E-009     212.28  <-- SCF
      4  -1.68460074E+004                    1.60788626E-010     223.98  <-- SCF
------------------------------------------------------------------------ <-- SCF
 
Final energy =  -16846.00737811     eV
(energy not corrected for finite basis set)
 
 
 *********************************** Forces ***********************************
 *                                                                            *
 *                        Cartesian components (eV/A)                         *
 * -------------------------------------------------------------------------- *
 *                   x                    y                    z              *
 *                                                                            *
 * O         1     -0.02775              0.03057              0.01828         *
 * O         2     -0.02791              0.03062              0.01825         *
 * O         3      0.02775              0.03057             -0.01828         *
 * O         4      0.02791              0.03062             -0.01825         *
 * O         5      0.02775             -0.03057             -0.01828         *
 * O         6      0.02791             -0.03062             -0.01825         *
 * O         7     -0.02775             -0.03057              0.01828         *
 * O         8     -0.02791             -0.03062              0.01825         *
 * O         9     -0.01992              0.04202              0.02556         *
 * O        10     -0.01987              0.04198              0.02557         *
 * O        11      0.01992              0.04202             -0.02556         *
 * O        12      0.01987              0.04198             -0.02557         *
 * O        13      0.01992             -0.04202             -0.02556         *
 * O        14      0.01987             -0.04198             -0.02557         *
 * O        15     -0.01992             -0.04202              0.02556         *
 * O        16     -0.01987             -0.04198              0.02557         *
 * O        17      0.02781              0.01901             -0.00801         *
 * O        18      0.02771              0.01907             -0.00806         *
 * O        19     -0.02781              0.01901              0.00801         *
 * O        20     -0.02771              0.01907              0.00806         *
 * O        21     -0.02781             -0.01901              0.00801         *
 * O        22     -0.02771             -0.01907              0.00806         *
 * O        23      0.02781             -0.01901             -0.00801         *
 * O        24      0.02771             -0.01907             -0.00806         *
 * Na        1      0.00000              0.00836              0.00000         *
 * Na        2      0.00000              0.00826              0.00000         *
 * Na        3      0.00000             -0.00836              0.00000         *
 * Na        4      0.00000             -0.00826              0.00000         *
 * Al        1      0.00000              0.04135              0.00000         *
 * Al        2      0.00000              0.04139              0.00000         *
 * Al        3      0.00000             -0.04135              0.00000         *
 * Al        4      0.00000             -0.04139              0.00000         *
 * Si        1     -0.00413              0.06623              0.01253         *
 * Si        2     -0.00421              0.06632              0.01252         *
 * Si        3      0.00413              0.06623             -0.01253         *
 * Si        4      0.00421              0.06632             -0.01252         *
 * Si        5      0.00413             -0.06623             -0.01253         *
 * Si        6      0.00421             -0.06632             -0.01252         *
 * Si        7     -0.00413             -0.06623              0.01253         *
 * Si        8     -0.00421             -0.06632              0.01252         *
 *                                                                            *
 ******************************************************************************
  
 +------------+-------------+-------------+-----------------+ <-- min BFGS
 |    Step    |   lambda    |   F.delta   |    enthalpy     | <-- min BFGS
 +------------+-------------+-------------+-----------------+ <-- min BFGS
 |  previous  |    0.000000 |    0.000242 |   -16835.311050 | <-- min BFGS
 | trial step |    1.000000 |    0.000155 |   -16835.316456 | <-- min BFGS
 |  line step |    2.792846 |    0.000003 |   -16835.320302 | <-- min BFGS
 +------------+-------------+-------------+-----------------+ <-- min BFGS
  
 BFGS: finished iteration     1 with enthalpy= -1.68353203E+004 eV
  
 +-----------+-----------------+-----------------+------------+-----+ <-- BFGS
 | Parameter |      value      |    tolerance    |    units   | OK? | <-- BFGS
 +-----------+-----------------+-----------------+------------+-----+ <-- BFGS
 |  dE/ion   |   2.313061E-004 |   2.000000E-007 |         eV | No  | <-- BFGS
 |  |F|max   |   6.762553E-002 |   1.000000E-003 |       eV/A | No  | <-- BFGS
 |  |dR|max  |   4.186324E-003 |   1.000000E-003 |          A | No  | <-- BFGS
 +-----------+-----------------+-----------------+------------+-----+ <-- BFGS
  

================================================================================
 Starting BFGS iteration          2 ...
================================================================================
 
Writing model to jadeite_4_30_GPa_cij__3__4.check
  
 +------------+-------------+-------------+-----------------+ <-- min BFGS
 |    Step    |   lambda    |   F.delta   |    enthalpy     | <-- min BFGS
 +------------+-------------+-------------+-----------------+ <-- min BFGS
 |  previous  |    0.000000 |    0.000017 |   -16835.320302 | <-- min BFGS
 +------------+-------------+-------------+-----------------+ <-- min BFGS
  

--------------------------------------------------------------------------------
 BFGS: starting iteration         2 with trial guess (lambda=  1.000000)
--------------------------------------------------------------------------------
 
                           -------------------------------
                                     Cell Contents
                           -------------------------------
 
            xxxxxxxxxxxxxxxxxxxxxxxxxxxxxxxxxxxxxxxxxxxxxxxxxxxxxxxxxxxx
            x  Element    Atom        Fractional coordinates of atoms  x
            x            Number           u          v          w      x
            x----------------------------------------------------------x
            x  O            1         0.109305   0.077049   0.129254   x
            x  O            2         0.609306   0.577048   0.129257   x
            x  O            3         0.890695   0.077049   0.370746   x
            x  O            4         0.390694   0.577048   0.370743   x
            x  O            5         0.890695   0.922951   0.870746   x
            x  O            6         0.390694   0.422952   0.870743   x
            x  O            7         0.109305   0.922951   0.629254   x
            x  O            8         0.609306   0.422952   0.629257   x
            x  O            9         0.361200   0.264247   0.295568   x
            x  O           10         0.861199   0.764247   0.295567   x
            x  O           11         0.638800   0.264247   0.204432   x
            x  O           12         0.138801   0.764247   0.204433   x
            x  O           13         0.638800   0.735753   0.704432   x
            x  O           14         0.138801   0.235753   0.704433   x
            x  O           15         0.361200   0.735753   0.795568   x
            x  O           16         0.861199   0.235753   0.795567   x
            x  O           17         0.354091   0.008548   1.005127   x
            x  O           18         0.854094   0.508545   1.005137   x
            x  O           19         0.645909   0.008548   0.494873   x
            x  O           20         0.145906   0.508545   0.494863   x
            x  O           21         0.645909   0.991452  -0.005127   x
            x  O           22         0.145906   0.491455  -0.005137   x
            x  O           23         0.354091   0.991452   0.505127   x
            x  O           24         0.854094   0.491455   0.505137   x
            x  Na           1         0.000000   0.301252   0.250000   x
            x  Na           2         0.500000   0.801256   0.250000   x
            x  Na           3         0.000000   0.698748   0.750000   x
            x  Na           4         0.500000   0.198744   0.750000   x
            x  Al           1         0.000000   0.906403   0.250000   x
            x  Al           2         0.500000   0.406403   0.250000   x
            x  Al           3         0.000000   0.093597   0.750000   x
            x  Al           4         0.500000   0.593597   0.750000   x
            x  Si           1         0.290607   0.093544   0.227899   x
            x  Si           2         0.790609   0.593543   0.227905   x
            x  Si           3         0.709393   0.093544   0.272101   x
            x  Si           4         0.209391   0.593543   0.272095   x
            x  Si           5         0.709393   0.906456   0.772101   x
            x  Si           6         0.209391   0.406457   0.772095   x
            x  Si           7         0.290607   0.906456   0.727899   x
            x  Si           8         0.790609   0.406457   0.727905   x
            xxxxxxxxxxxxxxxxxxxxxxxxxxxxxxxxxxxxxxxxxxxxxxxxxxxxxxxxxxxx
 
 
------------------------------------------------------------------------ <-- SCF
SCF loop      Energy                           Energy gain       Timer   <-- SCF
                                               per atom          (sec)   <-- SCF
------------------------------------------------------------------------ <-- SCF
Initial  -1.68460065E+004                                        229.28  <-- SCF
      1  -1.68460078E+004                    3.22525131E-005     240.56  <-- SCF
      2  -1.68460078E+004                    1.42906209E-008     252.95  <-- SCF
      3  -1.68460078E+004                    1.25135160E-010     266.18  <-- SCF
      4  -1.68460078E+004                    2.93889745E-012     279.54  <-- SCF
------------------------------------------------------------------------ <-- SCF
 
Final energy =  -16846.00781703     eV
(energy not corrected for finite basis set)
 
 
 *********************************** Forces ***********************************
 *                                                                            *
 *                        Cartesian components (eV/A)                         *
 * -------------------------------------------------------------------------- *
 *                   x                    y                    z              *
 *                                                                            *
 * O         1     -0.02515              0.03033              0.01780         *
 * O         2     -0.02528              0.03038              0.01777         *
 * O         3      0.02515              0.03033             -0.01780         *
 * O         4      0.02528              0.03038             -0.01777         *
 * O         5      0.02515             -0.03033             -0.01780         *
 * O         6      0.02528             -0.03038             -0.01777         *
 * O         7     -0.02515             -0.03033              0.01780         *
 * O         8     -0.02528             -0.03038              0.01777         *
 * O         9     -0.02203              0.03697              0.02481         *
 * O        10     -0.02198              0.03693              0.02482         *
 * O        11      0.02203              0.03697             -0.02481         *
 * O        12      0.02198              0.03693             -0.02482         *
 * O        13      0.02203             -0.03697             -0.02481         *
 * O        14      0.02198             -0.03693             -0.02482         *
 * O        15     -0.02203             -0.03697              0.02481         *
 * O        16     -0.02198             -0.03693              0.02482         *
 * O        17      0.02258              0.01848             -0.00719         *
 * O        18      0.02247              0.01854             -0.00724         *
 * O        19     -0.02258              0.01848              0.00719         *
 * O        20     -0.02247              0.01854              0.00724         *
 * O        21     -0.02258             -0.01848              0.00719         *
 * O        22     -0.02247             -0.01854              0.00724         *
 * O        23      0.02258             -0.01848             -0.00719         *
 * O        24      0.02247             -0.01854             -0.00724         *
 * Na        1      0.00000              0.00962              0.00000         *
 * Na        2      0.00000              0.00952              0.00000         *
 * Na        3      0.00000             -0.00962              0.00000         *
 * Na        4      0.00000             -0.00952              0.00000         *
 * Al        1      0.00000              0.03966              0.00000         *
 * Al        2      0.00000              0.03970              0.00000         *
 * Al        3      0.00000             -0.03966              0.00000         *
 * Al        4      0.00000             -0.03970              0.00000         *
 * Si        1      0.00145              0.06188              0.01209         *
 * Si        2      0.00137              0.06195              0.01208         *
 * Si        3     -0.00145              0.06188             -0.01209         *
 * Si        4     -0.00137              0.06195             -0.01208         *
 * Si        5     -0.00145             -0.06188             -0.01209         *
 * Si        6     -0.00137             -0.06195             -0.01208         *
 * Si        7      0.00145             -0.06188              0.01209         *
 * Si        8      0.00137             -0.06195              0.01208         *
 *                                                                            *
 ******************************************************************************
  
 +------------+-------------+-------------+-----------------+ <-- min BFGS
 |    Step    |   lambda    |   F.delta   |    enthalpy     | <-- min BFGS
 +------------+-------------+-------------+-----------------+ <-- min BFGS
 |  previous  |    0.000000 |    0.000017 |   -16835.320302 | <-- min BFGS
 | trial step |    1.000000 |    0.000015 |   -16835.320741 | <-- min BFGS
 +------------+-------------+-------------+-----------------+ <-- min BFGS
  

--------------------------------------------------------------------------------
 BFGS: improving iteration         2 with line minimization (lambda= 12.165515)
--------------------------------------------------------------------------------
 
                           -------------------------------
                                     Cell Contents
                           -------------------------------
 
            xxxxxxxxxxxxxxxxxxxxxxxxxxxxxxxxxxxxxxxxxxxxxxxxxxxxxxxxxxxx
            x  Element    Atom        Fractional coordinates of atoms  x
            x            Number           u          v          w      x
            x----------------------------------------------------------x
            x  O            1         0.109151   0.077274   0.129368   x
            x  O            2         0.609152   0.577273   0.129370   x
            x  O            3         0.890849   0.077274   0.370632   x
            x  O            4         0.390848   0.577273   0.370630   x
            x  O            5         0.890849   0.922726   0.870632   x
            x  O            6         0.390848   0.422727   0.870630   x
            x  O            7         0.109151   0.922726   0.629368   x
            x  O            8         0.609152   0.422727   0.629370   x
            x  O            9         0.361136   0.264684   0.295828   x
            x  O           10         0.861135   0.764684   0.295828   x
            x  O           11         0.638864   0.264684   0.204172   x
            x  O           12         0.138865   0.764684   0.204172   x
            x  O           13         0.638864   0.735316   0.704172   x
            x  O           14         0.138865   0.235316   0.704172   x
            x  O           15         0.361136   0.735316   0.795828   x
            x  O           16         0.861135   0.235316   0.795828   x
            x  O           17         0.354277   0.008694   1.005159   x
            x  O           18         0.854279   0.508691   1.005168   x
            x  O           19         0.645723   0.008694   0.494841   x
            x  O           20         0.145721   0.508691   0.494832   x
            x  O           21         0.645723   0.991306  -0.005159   x
            x  O           22         0.145721   0.491309  -0.005168   x
            x  O           23         0.354277   0.991306   0.505159   x
            x  O           24         0.854279   0.491309   0.505168   x
            x  Na           1         0.000000   0.301311   0.250000   x
            x  Na           2         0.500000   0.801315   0.250000   x
            x  Na           3         0.000000   0.698689   0.750000   x
            x  Na           4         0.500000   0.198685   0.750000   x
            x  Al           1         0.000000   0.906705   0.250000   x
            x  Al           2         0.500000   0.406705   0.250000   x
            x  Al           3         0.000000   0.093295   0.750000   x
            x  Al           4         0.500000   0.593295   0.750000   x
            x  Si           1         0.290491   0.093859   0.227942   x
            x  Si           2         0.790492   0.593859   0.227948   x
            x  Si           3         0.709509   0.093859   0.272058   x
            x  Si           4         0.209508   0.593859   0.272052   x
            x  Si           5         0.709509   0.906141   0.772058   x
            x  Si           6         0.209508   0.406141   0.772052   x
            x  Si           7         0.290491   0.906141   0.727942   x
            x  Si           8         0.790492   0.406141   0.727948   x
            xxxxxxxxxxxxxxxxxxxxxxxxxxxxxxxxxxxxxxxxxxxxxxxxxxxxxxxxxxxx
 
 
------------------------------------------------------------------------ <-- SCF
SCF loop      Energy                           Energy gain       Timer   <-- SCF
                                               per atom          (sec)   <-- SCF
------------------------------------------------------------------------ <-- SCF
Initial  -1.68458955E+004                                        284.68  <-- SCF
      1  -1.68460101E+004                    2.86432243E-003     296.24  <-- SCF
      2  -1.68460102E+004                    1.30063792E-006     307.71  <-- SCF
      3  -1.68460102E+004                    9.87260728E-009     319.31  <-- SCF
      4  -1.68460102E+004                    2.01778512E-010     330.71  <-- SCF
      5  -1.68460102E+004                    5.18174025E-012     344.83  <-- SCF
------------------------------------------------------------------------ <-- SCF
 
Final energy =  -16846.01015857     eV
(energy not corrected for finite basis set)
 
 
 *********************************** Forces ***********************************
 *                                                                            *
 *                        Cartesian components (eV/A)                         *
 * -------------------------------------------------------------------------- *
 *                   x                    y                    z              *
 *                                                                            *
 * O         1      0.00375              0.02746              0.01241         *
 * O         2      0.00384              0.02754              0.01242         *
 * O         3     -0.00375              0.02746             -0.01241         *
 * O         4     -0.00384              0.02754             -0.01242         *
 * O         5     -0.00375             -0.02746             -0.01241         *
 * O         6     -0.00384             -0.02754             -0.01242         *
 * O         7      0.00375             -0.02746              0.01241         *
 * O         8      0.00384             -0.02754              0.01242         *
 * O         9     -0.04564             -0.01960              0.01638         *
 * O        10     -0.04560             -0.01956              0.01641         *
 * O        11      0.04564             -0.01960             -0.01638         *
 * O        12      0.04560             -0.01956             -0.01641         *
 * O        13      0.04564              0.01960             -0.01638         *
 * O        14      0.04560              0.01956             -0.01641         *
 * O        15     -0.04564              0.01960              0.01638         *
 * O        16     -0.04560              0.01956              0.01641         *
 * O        17     -0.03575              0.01245              0.00189         *
 * O        18     -0.03589              0.01248              0.00185         *
 * O        19      0.03575              0.01245             -0.00189         *
 * O        20      0.03589              0.01248             -0.00185         *
 * O        21      0.03575             -0.01245             -0.00189         *
 * O        22      0.03589             -0.01248             -0.00185         *
 * O        23     -0.03575             -0.01245              0.00189         *
 * O        24     -0.03589             -0.01248              0.00185         *
 * Na        1      0.00000              0.02367              0.00000         *
 * Na        2      0.00000              0.02358              0.00000         *
 * Na        3      0.00000             -0.02367              0.00000         *
 * Na        4      0.00000             -0.02358              0.00000         *
 * Al        1      0.00000              0.02083              0.00000         *
 * Al        2      0.00000              0.02079              0.00000         *
 * Al        3      0.00000             -0.02083              0.00000         *
 * Al        4      0.00000             -0.02079              0.00000         *
 * Si        1      0.06366              0.01327              0.00723         *
 * Si        2      0.06354              0.01313              0.00718         *
 * Si        3     -0.06366              0.01327             -0.00723         *
 * Si        4     -0.06354              0.01313             -0.00718         *
 * Si        5     -0.06366             -0.01327             -0.00723         *
 * Si        6     -0.06354             -0.01313             -0.00718         *
 * Si        7      0.06366             -0.01327              0.00723         *
 * Si        8      0.06354             -0.01313              0.00718         *
 *                                                                            *
 ******************************************************************************
  
 +------------+-------------+-------------+-----------------+ <-- min BFGS
 |    Step    |   lambda    |   F.delta   |    enthalpy     | <-- min BFGS
 +------------+-------------+-------------+-----------------+ <-- min BFGS
 |  previous  |    0.000000 |    0.000017 |   -16835.320302 | <-- min BFGS
 | trial step |    1.000000 |    0.000015 |   -16835.320741 | <-- min BFGS
 |  line step |   12.165515 |    0.000000 |   -16835.323083 | <-- min BFGS
 +------------+-------------+-------------+-----------------+ <-- min BFGS
  
 BFGS: finished iteration     2 with enthalpy= -1.68353231E+004 eV
  
 +-----------+-----------------+-----------------+------------+-----+ <-- BFGS
 | Parameter |      value      |    tolerance    |    units   | OK? | <-- BFGS
 +-----------+-----------------+-----------------+------------+-----+ <-- BFGS
 |  dE/ion   |   6.951161E-005 |   2.000000E-007 |         eV | No  | <-- BFGS
 |  |F|max   |   6.542794E-002 |   1.000000E-003 |       eV/A | No  | <-- BFGS
 |  |dR|max  |   4.422099E-003 |   1.000000E-003 |          A | No  | <-- BFGS
 +-----------+-----------------+-----------------+------------+-----+ <-- BFGS
  

================================================================================
 Starting BFGS iteration          3 ...
================================================================================
 
Writing model to jadeite_4_30_GPa_cij__3__4.check
  
 +------------+-------------+-------------+-----------------+ <-- min BFGS
 |    Step    |   lambda    |   F.delta   |    enthalpy     | <-- min BFGS
 +------------+-------------+-------------+-----------------+ <-- min BFGS
 |  previous  |    0.000000 |    0.000021 |   -16835.323083 | <-- min BFGS
 +------------+-------------+-------------+-----------------+ <-- min BFGS
  

--------------------------------------------------------------------------------
 BFGS: starting iteration         3 with trial guess (lambda=  1.000000)
--------------------------------------------------------------------------------
 
                           -------------------------------
                                     Cell Contents
                           -------------------------------
 
            xxxxxxxxxxxxxxxxxxxxxxxxxxxxxxxxxxxxxxxxxxxxxxxxxxxxxxxxxxxx
            x  Element    Atom        Fractional coordinates of atoms  x
            x            Number           u          v          w      x
            x----------------------------------------------------------x
            x  O            1         0.109135   0.077305   0.129389   x
            x  O            2         0.609135   0.577304   0.129391   x
            x  O            3         0.890865   0.077305   0.370611   x
            x  O            4         0.390865   0.577304   0.370609   x
            x  O            5         0.890865   0.922695   0.870611   x
            x  O            6         0.390865   0.422696   0.870609   x
            x  O            7         0.109135   0.922695   0.629389   x
            x  O            8         0.609135   0.422696   0.629391   x
            x  O            9         0.361093   0.264679   0.295843   x
            x  O           10         0.861092   0.764680   0.295842   x
            x  O           11         0.638907   0.264679   0.204157   x
            x  O           12         0.138908   0.764680   0.204158   x
            x  O           13         0.638907   0.735321   0.704157   x
            x  O           14         0.138908   0.235320   0.704158   x
            x  O           15         0.361093   0.735321   0.795843   x
            x  O           16         0.861092   0.235320   0.795842   x
            x  O           17         0.354272   0.008710   1.005148   x
            x  O           18         0.854275   0.508707   1.005157   x
            x  O           19         0.645728   0.008710   0.494852   x
            x  O           20         0.145725   0.508707   0.494843   x
            x  O           21         0.645728   0.991290  -0.005148   x
            x  O           22         0.145725   0.491293  -0.005157   x
            x  O           23         0.354272   0.991290   0.505148   x
            x  O           24         0.854275   0.491293   0.505157   x
            x  Na           1         0.000000   0.301329   0.250000   x
            x  Na           2         0.500000   0.801333   0.250000   x
            x  Na           3         0.000000   0.698671   0.750000   x
            x  Na           4         0.500000   0.198667   0.750000   x
            x  Al           1         0.000000   0.906738   0.250000   x
            x  Al           2         0.500000   0.406739   0.250000   x
            x  Al           3         0.000000   0.093262   0.750000   x
            x  Al           4         0.500000   0.593261   0.750000   x
            x  Si           1         0.290533   0.093921   0.227987   x
            x  Si           2         0.790534   0.593921   0.227993   x
            x  Si           3         0.709467   0.093921   0.272013   x
            x  Si           4         0.209466   0.593921   0.272007   x
            x  Si           5         0.709467   0.906079   0.772013   x
            x  Si           6         0.209466   0.406079   0.772007   x
            x  Si           7         0.290533   0.906079   0.727987   x
            x  Si           8         0.790534   0.406079   0.727993   x
            xxxxxxxxxxxxxxxxxxxxxxxxxxxxxxxxxxxxxxxxxxxxxxxxxxxxxxxxxxxx
 
 
------------------------------------------------------------------------ <-- SCF
SCF loop      Energy                           Energy gain       Timer   <-- SCF
                                               per atom          (sec)   <-- SCF
------------------------------------------------------------------------ <-- SCF
Initial  -1.68460085E+004                                        350.95  <-- SCF
      1  -1.68460106E+004                    5.31430461E-005     363.15  <-- SCF
      2  -1.68460106E+004                    2.74875079E-008     374.34  <-- SCF
      3  -1.68460106E+004                    2.80742046E-010     386.35  <-- SCF
      4  -1.68460106E+004                    5.64577669E-012     400.28  <-- SCF
------------------------------------------------------------------------ <-- SCF
 
Final energy =  -16846.01058135     eV
(energy not corrected for finite basis set)
 
 
 *********************************** Forces ***********************************
 *                                                                            *
 *                        Cartesian components (eV/A)                         *
 * -------------------------------------------------------------------------- *
 *                   x                    y                    z              *
 *                                                                            *
 * O         1      0.01554              0.02767              0.00971         *
 * O         2      0.01561              0.02775              0.00972         *
 * O         3     -0.01554              0.02767             -0.00971         *
 * O         4     -0.01561              0.02775             -0.00972         *
 * O         5     -0.01554             -0.02767             -0.00971         *
 * O         6     -0.01561             -0.02775             -0.00972         *
 * O         7      0.01554             -0.02767              0.00971         *
 * O         8      0.01561             -0.02775              0.00972         *
 * O         9     -0.02989              0.00384              0.01549         *
 * O        10     -0.02987              0.00386              0.01552         *
 * O        11      0.02989              0.00384             -0.01549         *
 * O        12      0.02987              0.00386             -0.01552         *
 * O        13      0.02989             -0.00384             -0.01549         *
 * O        14      0.02987             -0.00386             -0.01552         *
 * O        15     -0.02989             -0.00384              0.01549         *
 * O        16     -0.02987             -0.00386              0.01552         *
 * O        17     -0.03550              0.01346              0.00384         *
 * O        18     -0.03564              0.01349              0.00380         *
 * O        19      0.03550              0.01346             -0.00384         *
 * O        20      0.03564              0.01349             -0.00380         *
 * O        21      0.03550             -0.01346             -0.00384         *
 * O        22      0.03564             -0.01349             -0.00380         *
 * O        23     -0.03550             -0.01346              0.00384         *
 * O        24     -0.03564             -0.01349              0.00380         *
 * Na        1      0.00000              0.02364              0.00000         *
 * Na        2      0.00000              0.02355              0.00000         *
 * Na        3      0.00000             -0.02364              0.00000         *
 * Na        4      0.00000             -0.02355              0.00000         *
 * Al        1      0.00000              0.02059              0.00000         *
 * Al        2      0.00000              0.02055              0.00000         *
 * Al        3      0.00000             -0.02059              0.00000         *
 * Al        4      0.00000             -0.02055              0.00000         *
 * Si        1      0.03966             -0.01707              0.00375         *
 * Si        2      0.03957             -0.01718              0.00371         *
 * Si        3     -0.03966             -0.01707             -0.00375         *
 * Si        4     -0.03957             -0.01718             -0.00371         *
 * Si        5     -0.03966              0.01707             -0.00375         *
 * Si        6     -0.03957              0.01718             -0.00371         *
 * Si        7      0.03966              0.01707              0.00375         *
 * Si        8      0.03957              0.01718              0.00371         *
 *                                                                            *
 ******************************************************************************
  
 +------------+-------------+-------------+-----------------+ <-- min BFGS
 |    Step    |   lambda    |   F.delta   |    enthalpy     | <-- min BFGS
 +------------+-------------+-------------+-----------------+ <-- min BFGS
 |  previous  |    0.000000 |    0.000021 |   -16835.323083 | <-- min BFGS
 | trial step |    1.000000 |    0.000010 |   -16835.323505 | <-- min BFGS
 +------------+-------------+-------------+-----------------+ <-- min BFGS
  

--------------------------------------------------------------------------------
 BFGS: improving iteration         3 with line minimization (lambda=  2.028445)
--------------------------------------------------------------------------------
 
                           -------------------------------
                                     Cell Contents
                           -------------------------------
 
            xxxxxxxxxxxxxxxxxxxxxxxxxxxxxxxxxxxxxxxxxxxxxxxxxxxxxxxxxxxx
            x  Element    Atom        Fractional coordinates of atoms  x
            x            Number           u          v          w      x
            x----------------------------------------------------------x
            x  O            1         0.109118   0.077338   0.129410   x
            x  O            2         0.609119   0.577337   0.129412   x
            x  O            3         0.890882   0.077338   0.370590   x
            x  O            4         0.390881   0.577337   0.370588   x
            x  O            5         0.890882   0.922662   0.870590   x
            x  O            6         0.390881   0.422663   0.870588   x
            x  O            7         0.109118   0.922662   0.629410   x
            x  O            8         0.609119   0.422663   0.629412   x
            x  O            9         0.361049   0.264675   0.295858   x
            x  O           10         0.861048   0.764676   0.295858   x
            x  O           11         0.638951   0.264675   0.204142   x
            x  O           12         0.138952   0.764676   0.204142   x
            x  O           13         0.638951   0.735325   0.704142   x
            x  O           14         0.138952   0.235324   0.704142   x
            x  O           15         0.361049   0.735325   0.795858   x
            x  O           16         0.861048   0.235324   0.795858   x
            x  O           17         0.354268   0.008727   1.005137   x
            x  O           18         0.854270   0.508724   1.005146   x
            x  O           19         0.645732   0.008727   0.494863   x
            x  O           20         0.145730   0.508724   0.494854   x
            x  O           21         0.645732   0.991273  -0.005137   x
            x  O           22         0.145730   0.491276  -0.005146   x
            x  O           23         0.354268   0.991273   0.505137   x
            x  O           24         0.854270   0.491276   0.505146   x
            x  Na           1         0.000000   0.301348   0.250000   x
            x  Na           2         0.500000   0.801351   0.250000   x
            x  Na           3         0.000000   0.698652   0.750000   x
            x  Na           4         0.500000   0.198649   0.750000   x
            x  Al           1         0.000000   0.906773   0.250000   x
            x  Al           2         0.500000   0.406773   0.250000   x
            x  Al           3         0.000000   0.093227   0.750000   x
            x  Al           4         0.500000   0.593227   0.750000   x
            x  Si           1         0.290577   0.093985   0.228034   x
            x  Si           2         0.790578   0.593984   0.228039   x
            x  Si           3         0.709423   0.093985   0.271966   x
            x  Si           4         0.209422   0.593984   0.271961   x
            x  Si           5         0.709423   0.906015   0.771966   x
            x  Si           6         0.209422   0.406016   0.771961   x
            x  Si           7         0.290577   0.906015   0.728034   x
            x  Si           8         0.790578   0.406016   0.728039   x
            xxxxxxxxxxxxxxxxxxxxxxxxxxxxxxxxxxxxxxxxxxxxxxxxxxxxxxxxxxxx
 
 
------------------------------------------------------------------------ <-- SCF
SCF loop      Energy                           Energy gain       Timer   <-- SCF
                                               per atom          (sec)   <-- SCF
------------------------------------------------------------------------ <-- SCF
Initial  -1.68460085E+004                                        405.87  <-- SCF
      1  -1.68460107E+004                    5.63726733E-005     418.18  <-- SCF
      2  -1.68460107E+004                    2.84213812E-008     430.37  <-- SCF
      3  -1.68460107E+004                    3.00695613E-010     443.24  <-- SCF
      4  -1.68460107E+004                    5.87779491E-012     455.80  <-- SCF
------------------------------------------------------------------------ <-- SCF
 
Final energy =  -16846.01072742     eV
(energy not corrected for finite basis set)
 
 
 *********************************** Forces ***********************************
 *                                                                            *
 *                        Cartesian components (eV/A)                         *
 * -------------------------------------------------------------------------- *
 *                   x                    y                    z              *
 *                                                                            *
 * O         1      0.02762              0.02790              0.00694         *
 * O         2      0.02767              0.02797              0.00694         *
 * O         3     -0.02762              0.02790             -0.00694         *
 * O         4     -0.02767              0.02797             -0.00694         *
 * O         5     -0.02762             -0.02790             -0.00694         *
 * O         6     -0.02767             -0.02797             -0.00694         *
 * O         7      0.02762             -0.02790              0.00694         *
 * O         8      0.02767             -0.02797              0.00694         *
 * O         9     -0.01367              0.02807              0.01460         *
 * O        10     -0.01366              0.02807              0.01463         *
 * O        11      0.01367              0.02807             -0.01460         *
 * O        12      0.01366              0.02807             -0.01463         *
 * O        13      0.01367             -0.02807             -0.01460         *
 * O        14      0.01366             -0.02807             -0.01463         *
 * O        15     -0.01367             -0.02807              0.01460         *
 * O        16     -0.01366             -0.02807              0.01463         *
 * O        17     -0.03524              0.01450              0.00583         *
 * O        18     -0.03538              0.01453              0.00579         *
 * O        19      0.03524              0.01450             -0.00583         *
 * O        20      0.03538              0.01453             -0.00579         *
 * O        21      0.03524             -0.01450             -0.00583         *
 * O        22      0.03538             -0.01453             -0.00579         *
 * O        23     -0.03524             -0.01450              0.00583         *
 * O        24     -0.03538             -0.01453              0.00579         *
 * Na        1      0.00000              0.02361              0.00000         *
 * Na        2      0.00000              0.02354              0.00000         *
 * Na        3      0.00000             -0.02361              0.00000         *
 * Na        4      0.00000             -0.02354              0.00000         *
 * Al        1      0.00000              0.02037              0.00000         *
 * Al        2      0.00000              0.02032              0.00000         *
 * Al        3      0.00000             -0.02037              0.00000         *
 * Al        4      0.00000             -0.02032              0.00000         *
 * Si        1      0.01497             -0.04841              0.00016         *
 * Si        2      0.01491             -0.04848              0.00012         *
 * Si        3     -0.01497             -0.04841             -0.00016         *
 * Si        4     -0.01491             -0.04848             -0.00012         *
 * Si        5     -0.01497              0.04841             -0.00016         *
 * Si        6     -0.01491              0.04848             -0.00012         *
 * Si        7      0.01497              0.04841              0.00016         *
 * Si        8      0.01491              0.04848              0.00012         *
 *                                                                            *
 ******************************************************************************
  
 +------------+-------------+-------------+-----------------+ <-- min BFGS
 |    Step    |   lambda    |   F.delta   |    enthalpy     | <-- min BFGS
 +------------+-------------+-------------+-----------------+ <-- min BFGS
 |  previous  |    0.000000 |    0.000021 |   -16835.323083 | <-- min BFGS
 | trial step |    1.000000 |    0.000010 |   -16835.323505 | <-- min BFGS
 |  line step |    2.028445 |    0.000000 |   -16835.323652 | <-- min BFGS
 +------------+-------------+-------------+-----------------+ <-- min BFGS
  
 BFGS: finished iteration     3 with enthalpy= -1.68353237E+004 eV
  
 +-----------+-----------------+-----------------+------------+-----+ <-- BFGS
 | Parameter |      value      |    tolerance    |    units   | OK? | <-- BFGS
 +-----------+-----------------+-----------------+------------+-----+ <-- BFGS
 |  dE/ion   |   1.422117E-005 |   2.000000E-007 |         eV | No  | <-- BFGS
 |  |F|max   |   5.072058E-002 |   1.000000E-003 |       eV/A | No  | <-- BFGS
 |  |dR|max  |   1.336917E-003 |   1.000000E-003 |          A | No  | <-- BFGS
 +-----------+-----------------+-----------------+------------+-----+ <-- BFGS
  

================================================================================
 Starting BFGS iteration          4 ...
================================================================================
 
Writing model to jadeite_4_30_GPa_cij__3__4.check
  
[...]
            x  O           20         0.146000   0.509337   0.495279   x
            x  O           21         0.646000   0.990663  -0.004720   x
            x  O           22         0.146000   0.490663  -0.004721   x
            x  O           23         0.354000   0.990663   0.504720   x
            x  O           24         0.854000   0.490663   0.504721   x
            x  Na           1         0.000000   0.302103   0.250000   x
            x  Na           2         0.500000   0.802103   0.250000   x
            x  Na           3         0.000000   0.697897   0.750000   x
            x  Na           4         0.500000   0.197897   0.750000   x
            x  Al           1         0.000000   0.906906   0.250000   x
            x  Al           2         0.500000   0.406906   0.250000   x
            x  Al           3         0.000000   0.093094   0.750000   x
            x  Al           4         0.500000   0.593094   0.750000   x
            x  Si           1         0.290589   0.094033   0.228378   x
            x  Si           2         0.790589   0.594034   0.228379   x
            x  Si           3         0.709411   0.094033   0.271622   x
            x  Si           4         0.209411   0.594034   0.271621   x
            x  Si           5         0.709411   0.905967   0.771622   x
            x  Si           6         0.209411   0.405966   0.771621   x
            x  Si           7         0.290589   0.905967   0.728378   x
            x  Si           8         0.790589   0.405966   0.728379   x
            xxxxxxxxxxxxxxxxxxxxxxxxxxxxxxxxxxxxxxxxxxxxxxxxxxxxxxxxxxxx
 
 
 BFGS: Final Enthalpy     = -1.68353254E+004 eV
 BFGS: Final <frequency>  =     990.44621 cm-1
 
 ***************************** Symmetrised Forces *****************************
 *                                                                            *
 *                        Cartesian components (eV/A)                         *
 * -------------------------------------------------------------------------- *
 *                   x                    y                    z              *
 *                                                                            *
 * O         1     -0.00030              0.00045              0.00002         *
 * O         2     -0.00024              0.00052              0.00002         *
 * O         3      0.00030              0.00045             -0.00002         *
 * O         4      0.00024              0.00052             -0.00002         *
 * O         5      0.00030             -0.00045             -0.00002         *
 * O         6      0.00024             -0.00052             -0.00002         *
 * O         7     -0.00030             -0.00045              0.00002         *
 * O         8     -0.00024             -0.00052              0.00002         *
 * O         9      0.00011              0.00002             -0.00056         *
 * O        10      0.00037              0.00060             -0.00056         *
 * O        11     -0.00011              0.00002              0.00056         *
 * O        12     -0.00037              0.00060              0.00056         *
 * O        13     -0.00011             -0.00002              0.00056         *
 * O        14     -0.00037             -0.00060              0.00056         *
 * O        15      0.00011             -0.00002             -0.00056         *
 * O        16      0.00037             -0.00060             -0.00056         *
 * O        17      0.00015              0.00005             -0.00030         *
 * O        18      0.00006              0.00010             -0.00023         *
 * O        19     -0.00015              0.00005              0.00030         *
 * O        20     -0.00006              0.00010              0.00023         *
 * O        21     -0.00015             -0.00005              0.00030         *
 * O        22     -0.00006             -0.00010              0.00023         *
 * O        23      0.00015             -0.00005             -0.00030         *
 * O        24      0.00006             -0.00010             -0.00023         *
 * Na        1      0.00000             -0.00004              0.00000         *
 * Na        2      0.00000             -0.00012              0.00000         *
 * Na        3      0.00000              0.00004              0.00000         *
 * Na        4      0.00000              0.00012              0.00000         *
 * Al        1      0.00000              0.00003              0.00000         *
 * Al        2      0.00000              0.00013              0.00000         *
 * Al        3      0.00000             -0.00003              0.00000         *
 * Al        4      0.00000             -0.00013              0.00000         *
 * Si        1     -0.00007              0.00016             -0.00029         *
 * Si        2     -0.00025             -0.00057             -0.00041         *
 * Si        3      0.00007              0.00016              0.00029         *
 * Si        4      0.00025             -0.00057              0.00041         *
 * Si        5      0.00007             -0.00016              0.00029         *
 * Si        6      0.00025              0.00057              0.00041         *
 * Si        7     -0.00007             -0.00016             -0.00029         *
 * Si        8     -0.00025              0.00057             -0.00041         *
 *                                                                            *
 ******************************************************************************
 
 *********** Symmetrised Stress Tensor ***********
 *                                               *
 *          Cartesian components (GPa)           *
 * --------------------------------------------- *
 *             x             y             z     *
 *                                               *
 *  x     -4.804085      0.000000     -0.108332  *
 *  y      0.000000     -6.057635      0.000000  *
 *  z     -0.108332      0.000000     -4.684717  *
 *                                               *
 *  Pressure:    5.1821                          *
 *                                               *
 *************************************************
 
 Pseudo atomic calculation performed for O 2s2 2p4
 
 Converged in 36 iterations to a total energy of -429.6485 eV
 
 
 Pseudo atomic calculation performed for Na 2s2 2p6 3s1
 
 Converged in 33 iterations to a total energy of -1302.8467 eV
 
 
 Pseudo atomic calculation performed for Al 3s2 3p1
 
 Converged in 20 iterations to a total energy of -52.7392 eV
 
 
 Pseudo atomic calculation performed for Si 3s2 3p2
 
 Converged in 21 iterations to a total energy of -101.9044 eV
 
Charge spilling parameter for spin component 1 = 0.85%
 
     Atomic Populations (Mulliken)
     -----------------------------
Species   Ion     s      p      d      f     Total  Charge (e)
==============================================================
  O        1     1.84   5.24   0.00   0.00   7.08    -1.08
  O        2     1.84   5.24   0.00   0.00   7.08    -1.08
  O        3     1.84   5.24   0.00   0.00   7.08    -1.08
  O        4     1.84   5.24   0.00   0.00   7.08    -1.08
  O        5     1.84   5.24   0.00   0.00   7.08    -1.08
  O        6     1.84   5.24   0.00   0.00   7.08    -1.08
  O        7     1.84   5.24   0.00   0.00   7.08    -1.08
  O        8     1.84   5.24   0.00   0.00   7.08    -1.08
  O        9     1.84   5.29   0.00   0.00   7.12    -1.12
  O       10     1.84   5.29   0.00   0.00   7.12    -1.12
  O       11     1.84   5.29   0.00   0.00   7.12    -1.12
  O       12     1.84   5.29   0.00   0.00   7.12    -1.12
  O       13     1.84   5.29   0.00   0.00   7.12    -1.12
  O       14     1.84   5.29   0.00   0.00   7.12    -1.12
  O       15     1.84   5.29   0.00   0.00   7.12    -1.12
  O       16     1.84   5.29   0.00   0.00   7.12    -1.12
  O       17     1.83   5.30   0.00   0.00   7.12    -1.12
  O       18     1.83   5.30   0.00   0.00   7.12    -1.12
  O       19     1.83   5.30   0.00   0.00   7.12    -1.12
  O       20     1.83   5.30   0.00   0.00   7.12    -1.12
  O       21     1.83   5.30   0.00   0.00   7.12    -1.12
  O       22     1.83   5.30   0.00   0.00   7.12    -1.12
  O       23     1.83   5.30   0.00   0.00   7.12    -1.12
  O       24     1.83   5.30   0.00   0.00   7.12    -1.12
  Na       1     2.04   5.77   0.00   0.00   7.81     1.19
  Na       2     2.04   5.77   0.00   0.00   7.81     1.19
  Na       3     2.04   5.77   0.00   0.00   7.81     1.19
  Na       4     2.04   5.77   0.00   0.00   7.81     1.19
  Al       1     0.51   0.92   0.00   0.00   1.42     1.58
  Al       2     0.51   0.92   0.00   0.00   1.42     1.58
  Al       3     0.51   0.92   0.00   0.00   1.42     1.58
  Al       4     0.51   0.92   0.00   0.00   1.42     1.58
  Si       1     0.69   1.36   0.00   0.00   2.05     1.95
  Si       2     0.69   1.36   0.00   0.00   2.05     1.95
  Si       3     0.69   1.36   0.00   0.00   2.05     1.95
  Si       4     0.69   1.36   0.00   0.00   2.05     1.95
  Si       5     0.69   1.36   0.00   0.00   2.05     1.95
  Si       6     0.69   1.36   0.00   0.00   2.05     1.95
  Si       7     0.69   1.36   0.00   0.00   2.05     1.95
  Si       8     0.69   1.36   0.00   0.00   2.05     1.95
==============================================================
 
     Bond                     Population      Length (A)
============================================================
   O 016 --   Si 008               0.77        1.59027
   O 014 --   Si 006               0.77        1.59027
   O 012 --   Si 004               0.77        1.59027
   O 010 --   Si 002               0.77        1.59027
   O 011 --   Si 003               0.77        1.59028
   O 009 --   Si 001               0.77        1.59028
   O 013 --   Si 005               0.77        1.59028
   O 015 --   Si 007               0.77        1.59028
   O 023 --   Si 007               0.56        1.62970
   O 021 --   Si 005               0.56        1.62970
   O 019 --   Si 003               0.56        1.62970
   O 017 --   Si 001               0.56        1.62970
   O 024 --   Si 008               0.56        1.62971
   O 020 --   Si 004               0.56        1.62971
   O 018 --   Si 002               0.56        1.62971
   O 022 --   Si 006               0.56        1.62971
   O 005 --   Si 005               0.60        1.63541
   O 003 --   Si 003               0.60        1.63541
   O 007 --   Si 007               0.60        1.63541
   O 001 --   Si 001               0.60        1.63541
   O 004 --   Si 004               0.60        1.63541
   O 002 --   Si 002               0.60        1.63541
   O 008 --   Si 008               0.60        1.63541
   O 006 --   Si 006               0.60        1.63541
   O 017 --   Si 007               0.58        1.64031
   O 019 --   Si 005               0.58        1.64031
   O 021 --   Si 003               0.58        1.64031
   O 023 --   Si 001               0.58        1.64031
   O 020 --   Si 006               0.58        1.64031
   O 018 --   Si 008               0.58        1.64031
   O 024 --   Si 002               0.58        1.64031
   O 022 --   Si 004               0.58        1.64031
   O 015 --   Al 004               0.42        1.84971
   O 013 --   Al 004               0.42        1.84971
   O 009 --   Al 002               0.42        1.84971
   O 011 --   Al 002               0.42        1.84971
   O 016 --   Al 003               0.42        1.84972
   O 014 --   Al 003               0.42        1.84972
   O 010 --   Al 001               0.42        1.84972
   O 012 --   Al 001               0.42        1.84972
   O 003 --   Al 003               0.32        1.94301
   O 001 --   Al 003               0.32        1.94301
   O 007 --   Al 001               0.32        1.94301
   O 005 --   Al 001               0.32        1.94301
   O 004 --   Al 004               0.32        1.94301
   O 008 --   Al 002               0.32        1.94301
   O 002 --   Al 004               0.32        1.94301
   O 006 --   Al 002               0.32        1.94301
   O 008 --   Al 004               0.31        1.98626
   O 006 --   Al 004               0.31        1.98626
   O 002 --   Al 002               0.31        1.98626
   O 004 --   Al 002               0.31        1.98626
   O 001 --   Al 001               0.31        1.98626
   O 003 --   Al 001               0.31        1.98626
   O 007 --   Al 003               0.31        1.98626
   O 005 --   Al 003               0.31        1.98626
   O 007 --   Na 003              -0.02        2.33916
   O 005 --   Na 003              -0.02        2.33916
   O 001 --   Na 001              -0.02        2.33916
   O 003 --   Na 001              -0.02        2.33916
   O 004 --   Na 002              -0.02        2.33916
   O 002 --   Na 002              -0.02        2.33916
   O 008 --   Na 004              -0.02        2.33916
   O 006 --   Na 004              -0.02        2.33916
   O 024 --   Na 003              -0.04        2.36005
   O 022 --   Na 003              -0.04        2.36005
   O 020 --   Na 001              -0.04        2.36005
   O 018 --   Na 001              -0.04        2.36005
   O 019 --   Na 002              -0.04        2.36006
   O 017 --   Na 002              -0.04        2.36006
   O 023 --   Na 004              -0.04        2.36006
   O 021 --   Na 004              -0.04        2.36006
   O 014 --   Na 001              -0.05        2.40237
   O 016 --   Na 001              -0.05        2.40237
   O 012 --   Na 003              -0.05        2.40237
   O 010 --   Na 003              -0.05        2.40237
   O 015 --   Na 002              -0.05        2.40237
   O 013 --   Na 002              -0.05        2.40237
   O 011 --   Na 004              -0.05        2.40237
   O 009 --   Na 004              -0.05        2.40237
   O 002 --    O 006              -0.10        2.47553
   O 004 --    O 008              -0.10        2.47553
   O 003 --    O 007              -0.10        2.47554
   O 001 --    O 005              -0.10        2.47554
   O 012 --    O 022              -0.10        2.57818
   O 010 --    O 024              -0.10        2.57818
   O 014 --    O 020              -0.10        2.57818
   O 016 --    O 018              -0.10        2.57818
   O 015 --    O 017              -0.10        2.57818
   O 013 --    O 019              -0.10        2.57818
   O 011 --    O 021              -0.10        2.57818
   O 009 --    O 023              -0.10        2.57818
   O 018 --    O 024              -0.16        2.61477
   O 020 --    O 022              -0.16        2.61477
   O 017 --    O 023              -0.16        2.61477
   O 019 --    O 021              -0.16        2.61477
   O 010 --    O 018              -0.09        2.64142
   O 012 --    O 020              -0.09        2.64142
   O 016 --    O 024              -0.09        2.64142
   O 014 --    O 022              -0.09        2.64142
   O 015 --    O 023              -0.09        2.64142
   O 013 --    O 021              -0.09        2.64142
   O 011 --    O 019              -0.09        2.64142
   O 009 --    O 017              -0.09        2.64142
   O 007 --    O 023              -0.09        2.64209
   O 003 --    O 019              -0.09        2.64209
   O 001 --    O 017              -0.09        2.64209
   O 005 --    O 021              -0.09        2.64209
   O 008 --    O 024              -0.09        2.64209
   O 006 --    O 022              -0.09        2.64209
   O 002 --    O 018              -0.09        2.64209
   O 004 --    O 020              -0.09        2.64209
   O 007 --    O 017              -0.08        2.64282
   O 005 --    O 019              -0.08        2.64282
   O 003 --    O 021              -0.08        2.64282
   O 001 --    O 023              -0.08        2.64282
   O 008 --    O 018              -0.08        2.64283
   O 006 --    O 020              -0.08        2.64283
   O 004 --    O 022              -0.08        2.64283
   O 002 --    O 024              -0.08        2.64283
   O 004 --    O 015              -0.08        2.68271
   O 002 --    O 013              -0.08        2.68271
   O 008 --    O 011              -0.08        2.68271
   O 006 --    O 009              -0.08        2.68271
   O 003 --    O 016              -0.08        2.68271
   O 005 --    O 010              -0.08        2.68271
   O 007 --    O 012              -0.08        2.68271
   O 001 --    O 014              -0.08        2.68271
   O 008 --    O 013              -0.06        2.68815
   O 006 --    O 015              -0.06        2.68815
   O 004 --    O 009              -0.06        2.68815
   O 002 --    O 011              -0.06        2.68815
   O 003 --    O 010              -0.06        2.68816
   O 001 --    O 012              -0.06        2.68816
   O 007 --    O 014              -0.06        2.68816
   O 005 --    O 016              -0.06        2.68816
   O 021 --   Na 002              -0.02        2.70580
   O 017 --   Na 004              -0.02        2.70580
   O 019 --   Na 004              -0.02        2.70580
   O 023 --   Na 002              -0.02        2.70580
   O 020 --   Na 003              -0.02        2.70580
   O 018 --   Na 003              -0.02        2.70580
   O 022 --   Na 001              -0.02        2.70580
   O 024 --   Na 001              -0.02        2.70580
   O 006 --    O 008              -0.05        2.71288
   O 002 --    O 004              -0.05        2.71288
   O 005 --    O 007              -0.05        2.71288
   O 001 --    O 003              -0.05        2.71288
   O 004 --    O 012              -0.06        2.76899
   O 002 --    O 010              -0.06        2.76899
   O 006 --    O 014              -0.06        2.76899
   O 008 --    O 016              -0.06        2.76899
   O 005 --    O 013              -0.06        2.76900
   O 003 --    O 011              -0.06        2.76900
   O 007 --    O 015              -0.06        2.76900
   O 001 --    O 009              -0.06        2.76900
   O 018 --    O 022              -0.04        2.76933
   O 020 --    O 024              -0.04        2.76933
   O 017 --    O 021              -0.04        2.76934
   O 019 --    O 023              -0.04        2.76934
   O 004 --    O 013              -0.04        2.79756
   O 002 --    O 015              -0.04        2.79756
   O 008 --    O 009              -0.04        2.79756
   O 006 --    O 011              -0.04        2.79756
   O 007 --    O 010              -0.04        2.79757
   O 001 --    O 016              -0.04        2.79757
   O 003 --    O 014              -0.04        2.79757
   O 005 --    O 012              -0.04        2.79757
   O 009 --    O 011              -0.05        2.80339
   O 013 --    O 015              -0.05        2.80339
   O 010 --    O 012              -0.05        2.80339
   O 014 --    O 016              -0.05        2.80339
   O 014 --    O 017              -0.03        2.88823
   O 012 --    O 023              -0.03        2.88823
   O 016 --    O 019              -0.03        2.88823
   O 010 --    O 021              -0.03        2.88823
   O 013 --    O 018              -0.03        2.88823
   O 015 --    O 020              -0.03        2.88823
   O 011 --    O 024              -0.03        2.88823
   O 009 --    O 022              -0.03        2.88823
   O 004 --    O 006              -0.06        2.92500
   O 002 --    O 008              -0.06        2.92500
   O 003 --    O 005              -0.06        2.92500
   O 001 --    O 007              -0.06        2.92500
============================================================
 
 
Writing model to jadeite_4_30_GPa_cij__3__4.check
 
Writing analysis data to jadeite_4_30_GPa_cij__3__4.castep_bin
Initialisation time =      1.99 s
Calculation time    =   1694.08 s
Finalisation time   =      0.80 s
Total time          =   1696.88 s
Peak Memory Use     = 221704 kB
