 +-------------------------------------------------+
 |                                                 |
 |      CCC   AA    SSS  TTTTT  EEEEE  PPPP        |
 |     C     A  A  S       T    E      P   P       |
 |     C     AAAA   SS     T    EEE    PPPP        |
 |     C     A  A     S    T    E      P           |
 |      CCC  A  A  SSS     T    EEEEE  P           |
 |                                                 |
 +-------------------------------------------------+
 |                                                 |
 | Welcome to Academic Release CASTEP version 5.02 |
 | Ab Initio Total Energy Program                  |
 |                                                 |
 | Authors:                                        |
 | M. Segall, M. Probert, C. Pickard, P. Hasnip,   |
 | S. Clark, K. Refson, M. Payne                   |
 |                                                 |
 | Contributors:                                   |
 | P. Lindan, P. Haynes, J. White, V. Milman,      |
 | N. Govind, M. Gibson, P. Tulip, V. Cocula,      |
 | B. Montanari, D. Quigley, M. Glover,            |
 | L. Bernasconi, A. Perlov, M. Plummer            |
 |                                                 |
 | Copyright (c) 2000 - 2009                       |
 |                                                 |
 |     Distributed under the terms of an           |
 |     Agreement between the United Kingdom        |
 |     Car-Parrinello (UKCP) Consortium,           |
 |     Daresbury Laboratory and Accelrys, Inc.     |
 |                                                 |
 | Please cite                                     |
 |                                                 |
 |     "First principles methods using CASTEP"     |
 |                                                 |
 |         Zeitschrift fuer Kristallographie       |
 |           220(5-6) pp. 567-570 (2005)           |
 |                                                 |
 | S. J. Clark, M. D. Segall, C. J. Pickard,       |
 | P. J. Hasnip, M. J. Probert, K. Refson,         |
 | M. C. Payne                                     |
 |                                                 |
 |       in all publications arising from          |
 |              your use of CASTEP                 |
 |                                                 |
 +-------------------------------------------------+
 
 
 Pseudo atomic calculation performed for O 2s2 2p4
 
 Converged in 36 iterations to a total energy of -429.6485 eV
 
 
 Pseudo atomic calculation performed for Na 2s2 2p6 3s1
 
 Converged in 33 iterations to a total energy of -1302.8467 eV
 
 
 Pseudo atomic calculation performed for Al 3s2 3p1
 
 Converged in 20 iterations to a total energy of -52.7392 eV
 
 
 Pseudo atomic calculation performed for Si 3s2 3p2
 
 Converged in 21 iterations to a total energy of -101.9044 eV
 
Calculation parallelised over   36 nodes.
K-points are distributed over    3 groups, each containing   12 nodes.

 ************************************ Title ************************************
 

 ***************************** General Parameters ******************************
  
 output verbosity                               : normal  (1)
 write checkpoint data to                       : jadeite_4_30_GPa_cij__3__3.check
 type of calculation                            : geometry optimization
 stress calculation                             : on
 density difference calculation                 : off
 electron localisation func (ELF) calculation   : off
 Hirshfeld analysis                             : off
 unlimited duration calculation
 timing information                             : on
 memory usage estimate                          : on
 write final potential to formatted file        : off
 write final density to formatted file          : off
  
 output         length unit                     : A
 output           mass unit                     : amu
 output           time unit                     : ps
 output         charge unit                     : e
 output         energy unit                     : eV
 output          force unit                     : eV/A
 output       velocity unit                     : A/ps
 output       pressure unit                     : GPa
 output     inv_length unit                     : 1/A
 output      frequency unit                     : cm-1
 output force constant unit                     : eV/A**2
 output         volume unit                     : A**3
 output   IR intensity unit                     : (D/A)**2/amu
 output         dipole unit                     : D
 output         efield unit                     : eV/A/e
  
 wavefunctions paging                           : none
 data distribution                              : optimal for this architecture
 optimization strategy                          : maximize speed(+++)

 *********************** Exchange-Correlation Parameters ***********************
  
 using functional                               : Perdew Burke Ernzerhof
 Divergence correction                          : off
 DFT+D: Semi-empirical dispersion correction    : off

 ************************* Pseudopotential Parameters **************************
  
 pseudopotential representation                 : reciprocal space
 <beta|phi> representation                      : reciprocal space

 **************************** Basis Set Parameters *****************************
  
 plane wave basis set cut-off                   :   700.0000   eV
 finite basis set correction                    : none

 **************************** Electronic Parameters ****************************
  
 number of  electrons                           :  224.0    
 net charge of system                           :  0.000    
 net spin   of system                           :  0.000    
 number of  up  spins                           :  112.0    
 number of down spins                           :  112.0    
 treating system as non-spin-polarized
 number of bands                                :        112

 ********************* Electronic Minimization Parameters **********************
  
 Method: Treating system as non-metallic,
         and number of  SD  steps               :          1
         and number of  CG  steps               :          4
  
 total energy / atom convergence tol.           : 0.1000E-07   eV
 max force / atom convergence tol.              : ignored
 convergence tolerance window                   :          3   cycles
 max. number of SCF cycles                      :        100

 *********************** Population Analysis Parameters ************************
  
 Population analysis with cutoff                :  3.000       A

 ********************** Geometry Optimization Parameters ***********************
  
 optimization method                            : BFGS
 variable cell method                           : fixed basis quality
 max. number of steps                           :        300
 estimated bulk modulus                         :  500.0       GPa
 estimated <frequency>                          :  1668.       cm-1
 line minimiser tolerance                       :     0.4000
 total energy convergence tolerance             : 0.2000E-06   eV/atom
        max ionic |force| tolerance             : 0.1000E-02   eV/A
 max ionic |displacement| tolerance             : 0.1000E-02   A
   max |stress component| tolerance             : 0.1000E-02   GPa
 convergence tolerance window                   :          2   steps
 backup results every                           :          1   steps

 *******************************************************************************
  
 
                           -------------------------------
                                      Unit Cell
                           -------------------------------
        Real Lattice(A)                      Reciprocal Lattice(1/A)
   8.9813393   0.0000000  -2.8290832        0.6995822   0.0000000   0.0000000
   0.0000000   8.6270160   0.0000000        0.0000000   0.7283150   0.0000000
   0.0000000   0.0000000   5.2199179        0.3791585   0.0000000   1.2036943
 
                       Lattice parameters(A)       Cell Angles
                    a =    9.416378          alpha =   90.000000
                    b =    8.627016          beta  =  107.484203
                    c =    5.219918          gamma =   90.000000
 
                       Current cell volume =  404.450500       A**3
 
                           -------------------------------
                                     Cell Contents
                           -------------------------------
                         Total number of ions in cell =   40
                      Total number of species in cell =    4
                        Max number of any one species =   24
 
            xxxxxxxxxxxxxxxxxxxxxxxxxxxxxxxxxxxxxxxxxxxxxxxxxxxxxxxxxxxx
            x  Element    Atom        Fractional coordinates of atoms  x
            x            Number           u          v          w      x
            x----------------------------------------------------------x
            x  O            1         0.109277   0.076953   0.129205   x
            x  O            2         0.609279   0.576951   0.129208   x
            x  O            3         0.890723   0.076953   0.370795   x
            x  O            4         0.390721   0.576951   0.370792   x
            x  O            5         0.890723   0.923047   0.870795   x
            x  O            6         0.390721   0.423048   0.870792   x
            x  O            7         0.109277   0.923047   0.629205   x
            x  O            8         0.609279   0.423048   0.629208   x
            x  O            9         0.361047   0.263746   0.295383   x
            x  O           10         0.861046   0.763747   0.295382   x
            x  O           11         0.638953   0.263746   0.204617   x
            x  O           12         0.138954   0.763747   0.204618   x
            x  O           13         0.638953   0.736253   0.704617   x
            x  O           14         0.138954   0.236253   0.704618   x
            x  O           15         0.361047   0.736253   0.795383   x
            x  O           16         0.861046   0.236253   0.795382   x
            x  O           17         0.354029   0.008469   1.005059   x
            x  O           18         0.854032   0.508466   1.005069   x
            x  O           19         0.645971   0.008469   0.494941   x
            x  O           20         0.145968   0.508466   0.494931   x
            x  O           21         0.645971   0.991531  -0.005059   x
            x  O           22         0.145968   0.491534  -0.005069   x
            x  O           23         0.354029   0.991531   0.505059   x
            x  O           24         0.854032   0.491534   0.505069   x
            x  Na           1         0.000000   0.301230   0.250000   x
            x  Na           2         0.500000   0.801235   0.250000   x
            x  Na           3         0.000000   0.698770   0.750000   x
            x  Na           4         0.500000   0.198765   0.750000   x
            x  Al           1         0.000000   0.906276   0.250000   x
            x  Al           2         0.500000   0.406276   0.250000   x
            x  Al           3         0.000000   0.093724   0.750000   x
            x  Al           4         0.500000   0.593723   0.750000   x
            x  Si           1         0.290869   0.093825   0.228100   x
            x  Si           2         0.790871   0.593824   0.228106   x
            x  Si           3         0.709131   0.093825   0.271900   x
            x  Si           4         0.209129   0.593824   0.271894   x
            x  Si           5         0.709131   0.906175   0.771900   x
            x  Si           6         0.209129   0.406176   0.771894   x
            x  Si           7         0.290869   0.906175   0.728100   x
            x  Si           8         0.790871   0.406176   0.728106   x
            xxxxxxxxxxxxxxxxxxxxxxxxxxxxxxxxxxxxxxxxxxxxxxxxxxxxxxxxxxxx
 
 
                         No user defined ionic velocities
 
                           -------------------------------
                                   Details of Species
                           -------------------------------
 
                               Mass of species in AMU
                                    O   15.9994000
                                    Na   22.9897700
                                    Al   26.9815400
                                    Si   28.0855000
 
                          Electric Quadrupole Moment (Barn)
                                    O   -0.0255800 Isotope 17
                                    Na    0.1040000 Isotope 23
                                    Al    0.1466000 Isotope 27
                                    Si    1.0000000 No Isotope Defined
 
                          Files used for pseudopotentials:
                                    O O_00PBE.usp
                                    Na Na_00PBE.usp
                                    Al Al_00PBE.usp
                                    Si Si_00PBE.usp
 
                           -------------------------------
                              k-Points For BZ Sampling
                           -------------------------------
                       MP grid size for SCF calculation is  2  2  3
                         Number of kpoints used = 3
 
             +++++++++++++++++++++++++++++++++++++++++++++++++++++++
             +  Number       Fractional coordinates        Weight  +
             +-----------------------------------------------------+
             +     1  -0.250000  -0.250000   0.333333   0.3333333  +
             +     2   0.250000   0.250000   0.000000   0.3333333  +
             +     3   0.250000   0.250000   0.333333   0.3333333  +
             +++++++++++++++++++++++++++++++++++++++++++++++++++++++
 
                           -------------------------------
                               Symmetry and Constraints
                           -------------------------------
 
                      Number of symmetry operations   = 4
                      Number of ionic constraints     = 3
                      Maximum deviation from symmetry = 0.173858E-14     ANG
               Point group of crystal =     5: C2h, 2/m, 2/m
           Set iprint > 1 for details on symmetry rotations/translations
 
                          Centre of mass is constrained
             Set iprint > 1 for details of linear ionic constraints
 
                         Number of cell constraints= 6
                         Cell constraints are:  0 0 0 0 0 0
 
                         External pressure/stress (GPa)
                          4.30000   0.00000   0.00000
                                    4.30000   0.00000
                                              4.30000
  
+---------------- MEMORY AND SCRATCH DISK ESTIMATES PER NODE -----------------+
|                                                     Memory          Disk    |
| Model and support data                               60.0 MB         0.0 MB |
| Electronic energy minimisation requirements          16.8 MB         0.0 MB |
|                                               ----------------------------- |
| Approx. total storage required per node              76.8 MB         0.0 MB |
|                                                                             |
| Requirements will fluctuate during execution and may exceed these estimates |
+-----------------------------------------------------------------------------+
------------------------------------------------------------------------ <-- SCF
SCF loop      Energy                           Energy gain       Timer   <-- SCF
                                               per atom          (sec)   <-- SCF
------------------------------------------------------------------------ <-- SCF
Initial  -1.62260765E+003                                          4.90  <-- SCF
      1  -1.64446581E+004                    3.70551262E+002      16.78  <-- SCF
      2  -1.68137230E+004                    9.22662123E+000      28.20  <-- SCF
      3  -1.68449770E+004                    7.81350492E-001      39.63  <-- SCF
      4  -1.68461578E+004                    2.95203892E-002      50.88  <-- SCF
      5  -1.68461651E+004                    1.81420006E-004      62.14  <-- SCF
      6  -1.68461652E+004                    3.90379835E-006      73.31  <-- SCF
      7  -1.68461652E+004                    1.15746543E-007      84.55  <-- SCF
      8  -1.68461652E+004                    3.59612773E-009      95.84  <-- SCF
      9  -1.68461652E+004                    1.15235716E-010     107.05  <-- SCF
------------------------------------------------------------------------ <-- SCF
 
Final energy =  -16846.16521721     eV
(energy not corrected for finite basis set)
 
 
Writing model to jadeite_4_30_GPa_cij__3__3.check
 
+---------------- MEMORY AND SCRATCH DISK ESTIMATES PER NODE -----------------+
|                                                     Memory          Disk    |
| Model and support data                               53.1 MB         0.0 MB |
| Geometry minimisation requirements                   19.5 MB         0.0 MB |
|                                               ----------------------------- |
| Approx. total storage required per node              72.6 MB         0.0 MB |
|                                                                             |
| Requirements will fluctuate during execution and may exceed these estimates |
+-----------------------------------------------------------------------------+
 
 
 *********************************** Forces ***********************************
 *                                                                            *
 *                        Cartesian components (eV/A)                         *
 * -------------------------------------------------------------------------- *
 *                   x                    y                    z              *
 *                                                                            *
 * O         1     -0.02651             -0.04455             -0.00828         *
 * O         2     -0.02666             -0.04450             -0.00832         *
 * O         3      0.02651             -0.04455              0.00828         *
 * O         4      0.02666             -0.04450              0.00832         *
 * O         5      0.02651              0.04455              0.00828         *
 * O         6      0.02666              0.04450              0.00832         *
 * O         7     -0.02651              0.04455             -0.00828         *
 * O         8     -0.02666              0.04450             -0.00832         *
 * O         9     -0.09690             -0.27263             -0.02638         *
 * O        10     -0.09677             -0.27258             -0.02637         *
 * O        11      0.09690             -0.27263              0.02638         *
 * O        12      0.09677             -0.27258              0.02637         *
 * O        13      0.09690              0.27263              0.02638         *
 * O        14      0.09677              0.27258              0.02637         *
 * O        15     -0.09690              0.27263             -0.02638         *
 * O        16     -0.09677              0.27258             -0.02637         *
 * O        17     -0.03154             -0.03905             -0.01427         *
 * O        18     -0.03160             -0.03897             -0.01430         *
 * O        19      0.03154             -0.03905              0.01427         *
 * O        20      0.03160             -0.03897              0.01430         *
 * O        21      0.03154              0.03905              0.01427         *
 * O        22      0.03160              0.03897              0.01430         *
 * O        23     -0.03154              0.03905             -0.01427         *
 * O        24     -0.03160              0.03897             -0.01430         *
 * Na        1      0.00000             -0.00773              0.00000         *
 * Na        2      0.00000             -0.00785              0.00000         *
 * Na        3      0.00000              0.00773              0.00000         *
 * Na        4      0.00000              0.00785              0.00000         *
 * Al        1      0.00000             -0.06273              0.00000         *
 * Al        2      0.00000             -0.06263              0.00000         *
 * Al        3      0.00000              0.06273              0.00000         *
 * Al        4      0.00000              0.06263              0.00000         *
 * Si        1      0.15676              0.17566              0.02402         *
 * Si        2      0.15654              0.17570              0.02399         *
 * Si        3     -0.15676              0.17566             -0.02402         *
 * Si        4     -0.15654              0.17570             -0.02399         *
 * Si        5     -0.15676             -0.17566             -0.02402         *
 * Si        6     -0.15654             -0.17570             -0.02399         *
 * Si        7      0.15676             -0.17566              0.02402         *
 * Si        8      0.15654             -0.17570              0.02399         *
 *                                                                            *
 ******************************************************************************
 BFGS: finished iteration     0 with enthalpy= -1.68353104E+004 eV
  
 +-----------+-----------------+-----------------+------------+-----+ <-- BFGS
 | Parameter |      value      |    tolerance    |    units   | OK? | <-- BFGS
 +-----------+-----------------+-----------------+------------+-----+ <-- BFGS
 |  dE/ion   |   0.000000E+000 |   2.000000E-007 |         eV | No  | <-- BFGS
 |  |F|max   |   2.905415E-001 |   1.000000E-003 |       eV/A | No  | <-- BFGS
 |  |dR|max  |   0.000000E+000 |   1.000000E-003 |          A | No  | <-- BFGS
 +-----------+-----------------+-----------------+------------+-----+ <-- BFGS
  

================================================================================
 Starting BFGS iteration          1 ...
================================================================================
 
Writing model to jadeite_4_30_GPa_cij__3__3.check
  
 +------------+-------------+-------------+-----------------+ <-- min BFGS
 |    Step    |   lambda    |   F.delta   |    enthalpy     | <-- min BFGS
 +------------+-------------+-------------+-----------------+ <-- min BFGS
 |  previous  |    0.000000 |    0.000210 |   -16835.310376 | <-- min BFGS
 +------------+-------------+-------------+-----------------+ <-- min BFGS
  

--------------------------------------------------------------------------------
 BFGS: starting iteration         1 with trial guess (lambda=  1.000000)
--------------------------------------------------------------------------------
 
                           -------------------------------
                                     Cell Contents
                           -------------------------------
 
            xxxxxxxxxxxxxxxxxxxxxxxxxxxxxxxxxxxxxxxxxxxxxxxxxxxxxxxxxxxx
            x  Element    Atom        Fractional coordinates of atoms  x
            x            Number           u          v          w      x
            x----------------------------------------------------------x
            x  O            1         0.109263   0.076928   0.129190   x
            x  O            2         0.609265   0.576927   0.129193   x
            x  O            3         0.890737   0.076928   0.370810   x
            x  O            4         0.390735   0.576927   0.370807   x
            x  O            5         0.890737   0.923072   0.870810   x
            x  O            6         0.390735   0.423073   0.870807   x
            x  O            7         0.109263   0.923072   0.629190   x
            x  O            8         0.609265   0.423073   0.629193   x
            x  O            9         0.360995   0.263594   0.295330   x
            x  O           10         0.860994   0.763594   0.295329   x
            x  O           11         0.639005   0.263594   0.204670   x
            x  O           12         0.139006   0.763594   0.204671   x
            x  O           13         0.639005   0.736406   0.704670   x
            x  O           14         0.139006   0.236406   0.704671   x
            x  O           15         0.360995   0.736406   0.795330   x
            x  O           16         0.860994   0.236406   0.795329   x
            x  O           17         0.354012   0.008448   1.005037   x
            x  O           18         0.854015   0.508444   1.005047   x
            x  O           19         0.645988   0.008448   0.494963   x
            x  O           20         0.145985   0.508444   0.494953   x
            x  O           21         0.645988   0.991552  -0.005037   x
            x  O           22         0.145985   0.491556  -0.005047   x
            x  O           23         0.354012   0.991552   0.505037   x
            x  O           24         0.854015   0.491556   0.505047   x
            x  Na           1         0.000000   0.301226   0.250000   x
            x  Na           2         0.500000   0.801230   0.250000   x
            x  Na           3         0.000000   0.698774   0.750000   x
            x  Na           4         0.500000   0.198770   0.750000   x
            x  Al           1         0.000000   0.906241   0.250000   x
            x  Al           2         0.500000   0.406241   0.250000   x
            x  Al           3         0.000000   0.093759   0.750000   x
            x  Al           4         0.500000   0.593759   0.750000   x
            x  Si           1         0.290953   0.093923   0.228168   x
            x  Si           2         0.790955   0.593922   0.228174   x
            x  Si           3         0.709047   0.093923   0.271832   x
            x  Si           4         0.209045   0.593922   0.271826   x
            x  Si           5         0.709047   0.906077   0.771832   x
            x  Si           6         0.209045   0.406078   0.771826   x
            x  Si           7         0.290953   0.906077   0.728168   x
            x  Si           8         0.790955   0.406078   0.728174   x
            xxxxxxxxxxxxxxxxxxxxxxxxxxxxxxxxxxxxxxxxxxxxxxxxxxxxxxxxxxxx
 
 
------------------------------------------------------------------------ <-- SCF
SCF loop      Energy                           Energy gain       Timer   <-- SCF
                                               per atom          (sec)   <-- SCF
------------------------------------------------------------------------ <-- SCF
Initial  -1.68461547E+004                                        113.37  <-- SCF
      1  -1.68461700E+004                    3.82848051E-004     124.71  <-- SCF
      2  -1.68461700E+004                    1.64592101E-007     135.95  <-- SCF
      3  -1.68461700E+004                    2.03812538E-009     147.30  <-- SCF
      4  -1.68461700E+004                    4.28460313E-011     158.58  <-- SCF
------------------------------------------------------------------------ <-- SCF
 
Final energy =  -16846.17001309     eV
(energy not corrected for finite basis set)
 
 
 *********************************** Forces ***********************************
 *                                                                            *
 *                        Cartesian components (eV/A)                         *
 * -------------------------------------------------------------------------- *
 *                   x                    y                    z              *
 *                                                                            *
 * O         1     -0.00802             -0.03832             -0.01217         *
 * O         2     -0.00818             -0.03828             -0.01221         *
 * O         3      0.00802             -0.03832              0.01217         *
 * O         4      0.00818             -0.03828              0.01221         *
 * O         5      0.00802              0.03832              0.01217         *
 * O         6      0.00818              0.03828              0.01221         *
 * O         7     -0.00802              0.03832             -0.01217         *
 * O         8     -0.00818              0.03828             -0.01221         *
 * O         9     -0.05917             -0.19799             -0.02552         *
 * O        10     -0.05907             -0.19796             -0.02551         *
 * O        11      0.05917             -0.19799              0.02552         *
 * O        12      0.05907             -0.19796              0.02551         *
 * O        13      0.05917              0.19799              0.02552         *
 * O        14      0.05907              0.19796              0.02551         *
 * O        15     -0.05917              0.19799             -0.02552         *
 * O        16     -0.05907              0.19796             -0.02551         *
 * O        17     -0.02999             -0.03193             -0.00682         *
 * O        18     -0.03006             -0.03186             -0.00686         *
 * O        19      0.02999             -0.03193              0.00682         *
 * O        20      0.03006             -0.03186              0.00686         *
 * O        21      0.02999              0.03193              0.00682         *
 * O        22      0.03006              0.03186              0.00686         *
 * O        23     -0.02999              0.03193             -0.00682         *
 * O        24     -0.03006              0.03186             -0.00686         *
 * Na        1      0.00000             -0.00724              0.00000         *
 * Na        2      0.00000             -0.00735              0.00000         *
 * Na        3      0.00000              0.00724              0.00000         *
 * Na        4      0.00000              0.00735              0.00000         *
 * Al        1      0.00000             -0.05460              0.00000         *
 * Al        2      0.00000             -0.05451              0.00000         *
 * Al        3      0.00000              0.05460              0.00000         *
 * Al        4      0.00000              0.05451              0.00000         *
 * Si        1      0.10493              0.09580              0.01210         *
 * Si        2      0.10476              0.09586              0.01208         *
 * Si        3     -0.10493              0.09580             -0.01210         *
 * Si        4     -0.10476              0.09586             -0.01208         *
 * Si        5     -0.10493             -0.09580             -0.01210         *
 * Si        6     -0.10476             -0.09586             -0.01208         *
 * Si        7      0.10493             -0.09580              0.01210         *
 * Si        8      0.10476             -0.09586              0.01208         *
 *                                                                            *
 ******************************************************************************
  
 +------------+-------------+-------------+-----------------+ <-- min BFGS
 |    Step    |   lambda    |   F.delta   |    enthalpy     | <-- min BFGS
 +------------+-------------+-------------+-----------------+ <-- min BFGS
 |  previous  |    0.000000 |    0.000210 |   -16835.310376 | <-- min BFGS
 | trial step |    1.000000 |    0.000142 |   -16835.315172 | <-- min BFGS
 +------------+-------------+-------------+-----------------+ <-- min BFGS
  

--------------------------------------------------------------------------------
 BFGS: improving iteration         1 with line minimization (lambda=  3.088185)
--------------------------------------------------------------------------------
 
                           -------------------------------
                                     Cell Contents
                           -------------------------------
 
            xxxxxxxxxxxxxxxxxxxxxxxxxxxxxxxxxxxxxxxxxxxxxxxxxxxxxxxxxxxx
            x  Element    Atom        Fractional coordinates of atoms  x
            x            Number           u          v          w      x
            x----------------------------------------------------------x
            x  O            1         0.109233   0.076876   0.129157   x
            x  O            2         0.609235   0.576874   0.129160   x
            x  O            3         0.890767   0.076876   0.370843   x
            x  O            4         0.390765   0.576874   0.370840   x
            x  O            5         0.890767   0.923124   0.870843   x
            x  O            6         0.390765   0.423126   0.870840   x
            x  O            7         0.109233   0.923124   0.629157   x
            x  O            8         0.609235   0.423126   0.629160   x
            x  O            9         0.360886   0.263275   0.295220   x
            x  O           10         0.860885   0.763275   0.295219   x
            x  O           11         0.639114   0.263275   0.204780   x
            x  O           12         0.139115   0.763275   0.204781   x
            x  O           13         0.639114   0.736725   0.704780   x
            x  O           14         0.139115   0.236725   0.704781   x
            x  O           15         0.360886   0.736725   0.795220   x
            x  O           16         0.860885   0.236725   0.795219   x
            x  O           17         0.353977   0.008402   1.004990   x
            x  O           18         0.853979   0.508399   1.005000   x
            x  O           19         0.646023   0.008402   0.495010   x
            x  O           20         0.146021   0.508399   0.495000   x
            x  O           21         0.646023   0.991598  -0.004990   x
            x  O           22         0.146021   0.491601  -0.005000   x
            x  O           23         0.353977   0.991598   0.504990   x
            x  O           24         0.853979   0.491601   0.505000   x
            x  Na           1         0.000000   0.301217   0.250000   x
            x  Na           2         0.500000   0.801221   0.250000   x
            x  Na           3         0.000000   0.698783   0.750000   x
            x  Na           4         0.500000   0.198779   0.750000   x
            x  Al           1         0.000000   0.906168   0.250000   x
            x  Al           2         0.500000   0.406168   0.250000   x
            x  Al           3         0.000000   0.093832   0.750000   x
            x  Al           4         0.500000   0.593832   0.750000   x
            x  Si           1         0.291130   0.094129   0.228310   x
            x  Si           2         0.791131   0.594128   0.228316   x
            x  Si           3         0.708870   0.094129   0.271690   x
            x  Si           4         0.208869   0.594128   0.271684   x
            x  Si           5         0.708870   0.905871   0.771690   x
            x  Si           6         0.208869   0.405872   0.771684   x
            x  Si           7         0.291130   0.905871   0.728310   x
            x  Si           8         0.791131   0.405872   0.728316   x
            xxxxxxxxxxxxxxxxxxxxxxxxxxxxxxxxxxxxxxxxxxxxxxxxxxxxxxxxxxxx
 
 
------------------------------------------------------------------------ <-- SCF
SCF loop      Energy                           Energy gain       Timer   <-- SCF
                                               per atom          (sec)   <-- SCF
------------------------------------------------------------------------ <-- SCF
Initial  -1.68461136E+004                                        163.56  <-- SCF
      1  -1.68461740E+004                    1.50958141E-003     174.89  <-- SCF
      2  -1.68461740E+004                    6.73620122E-007     186.19  <-- SCF
      3  -1.68461740E+004                    8.23525470E-009     197.45  <-- SCF
      4  -1.68461740E+004                    1.65970367E-010     208.71  <-- SCF
------------------------------------------------------------------------ <-- SCF
 
Final energy =  -16846.17399309     eV
(energy not corrected for finite basis set)
 
 
 *********************************** Forces ***********************************
 *                                                                            *
 *                        Cartesian components (eV/A)                         *
 * -------------------------------------------------------------------------- *
 *                   x                    y                    z              *
 *                                                                            *
 * O         1      0.03018             -0.02524             -0.02028         *
 * O         2      0.03002             -0.02519             -0.02032         *
 * O         3     -0.03018             -0.02524              0.02028         *
 * O         4     -0.03002             -0.02519              0.02032         *
 * O         5     -0.03018              0.02524              0.02028         *
 * O         6     -0.03002              0.02519              0.02032         *
 * O         7      0.03018              0.02524             -0.02028         *
 * O         8      0.03002              0.02519             -0.02032         *
 * O         9      0.02094             -0.03872             -0.02334         *
 * O        10      0.02099             -0.03875             -0.02333         *
 * O        11     -0.02094             -0.03872              0.02334         *
 * O        12     -0.02099             -0.03875              0.02333         *
 * O        13     -0.02094              0.03872              0.02334         *
 * O        14     -0.02099              0.03875              0.02333         *
 * O        15      0.02094              0.03872             -0.02334         *
 * O        16      0.02099              0.03875             -0.02333         *
 * O        17     -0.02674             -0.01705              0.00872         *
 * O        18     -0.02684             -0.01699              0.00867         *
 * O        19      0.02674             -0.01705             -0.00872         *
 * O        20      0.02684             -0.01699             -0.00867         *
 * O        21      0.02674              0.01705             -0.00872         *
 * O        22      0.02684              0.01699             -0.00867         *
 * O        23     -0.02674              0.01705              0.00872         *
 * O        24     -0.02684              0.01699              0.00867         *
 * Na        1      0.00000             -0.00624              0.00000         *
 * Na        2      0.00000             -0.00634              0.00000         *
 * Na        3      0.00000              0.00624              0.00000         *
 * Na        4      0.00000              0.00634              0.00000         *
 * Al        1      0.00000             -0.03736              0.00000         *
 * Al        2      0.00000             -0.03731              0.00000         *
 * Al        3      0.00000              0.03736              0.00000         *
 * Al        4      0.00000              0.03731              0.00000         *
 * Si        1     -0.00440             -0.07459             -0.01312         *
 * Si        2     -0.00448             -0.07451             -0.01313         *
 * Si        3      0.00440             -0.07459              0.01312         *
 * Si        4      0.00448             -0.07451              0.01313         *
 * Si        5      0.00440              0.07459              0.01312         *
 * Si        6      0.00448              0.07451              0.01313         *
 * Si        7     -0.00440              0.07459             -0.01312         *
 * Si        8     -0.00448              0.07451             -0.01313         *
 *                                                                            *
 ******************************************************************************
  
 +------------+-------------+-------------+-----------------+ <-- min BFGS
 |    Step    |   lambda    |   F.delta   |    enthalpy     | <-- min BFGS
 +------------+-------------+-------------+-----------------+ <-- min BFGS
 |  previous  |    0.000000 |    0.000210 |   -16835.310376 | <-- min BFGS
 | trial step |    1.000000 |    0.000142 |   -16835.315172 | <-- min BFGS
 |  line step |    3.088185 |   -0.000003 |   -16835.319152 | <-- min BFGS
 +------------+-------------+-------------+-----------------+ <-- min BFGS
  
 BFGS: finished iteration     1 with enthalpy= -1.68353192E+004 eV
  
 +-----------+-----------------+-----------------+------------+-----+ <-- BFGS
 | Parameter |      value      |    tolerance    |    units   | OK? | <-- BFGS
 +-----------+-----------------+-----------------+------------+-----+ <-- BFGS
 |  dE/ion   |   2.193970E-004 |   2.000000E-007 |         eV | No  | <-- BFGS
 |  |F|max   |   7.586658E-002 |   1.000000E-003 |       eV/A | No  | <-- BFGS
 |  |dR|max  |   4.339339E-003 |   1.000000E-003 |          A | No  | <-- BFGS
 +-----------+-----------------+-----------------+------------+-----+ <-- BFGS
  

================================================================================
 Starting BFGS iteration          2 ...
================================================================================
 
Writing model to jadeite_4_30_GPa_cij__3__3.check
  
 +------------+-------------+-------------+-----------------+ <-- min BFGS
 |    Step    |   lambda    |   F.delta   |    enthalpy     | <-- min BFGS
 +------------+-------------+-------------+-----------------+ <-- min BFGS
 |  previous  |    0.000000 |    0.000017 |   -16835.319152 | <-- min BFGS
 +------------+-------------+-------------+-----------------+ <-- min BFGS
  

--------------------------------------------------------------------------------
 BFGS: starting iteration         2 with trial guess (lambda=  1.000000)
--------------------------------------------------------------------------------
 
                           -------------------------------
                                     Cell Contents
                           -------------------------------
 
            xxxxxxxxxxxxxxxxxxxxxxxxxxxxxxxxxxxxxxxxxxxxxxxxxxxxxxxxxxxx
            x  Element    Atom        Fractional coordinates of atoms  x
            x            Number           u          v          w      x
            x----------------------------------------------------------x
            x  O            1         0.109248   0.076861   0.129147   x
            x  O            2         0.609250   0.576859   0.129149   x
            x  O            3         0.890752   0.076861   0.370853   x
            x  O            4         0.390750   0.576859   0.370851   x
            x  O            5         0.890752   0.923139   0.870853   x
            x  O            6         0.390750   0.423141   0.870851   x
            x  O            7         0.109248   0.923139   0.629147   x
            x  O            8         0.609250   0.423141   0.629149   x
            x  O            9         0.360894   0.263245   0.295202   x
            x  O           10         0.860893   0.763246   0.295201   x
            x  O           11         0.639106   0.263245   0.204798   x
            x  O           12         0.139107   0.763246   0.204799   x
            x  O           13         0.639106   0.736755   0.704798   x
            x  O           14         0.139107   0.236754   0.704799   x
            x  O           15         0.360894   0.736755   0.795202   x
            x  O           16         0.860893   0.236754   0.795201   x
            x  O           17         0.353961   0.008391   1.004989   x
            x  O           18         0.853964   0.508388   1.004999   x
            x  O           19         0.646039   0.008391   0.495011   x
            x  O           20         0.146036   0.508388   0.495001   x
            x  O           21         0.646039   0.991609  -0.004989   x
            x  O           22         0.146036   0.491612  -0.004999   x
            x  O           23         0.353961   0.991609   0.504989   x
            x  O           24         0.853964   0.491612   0.504999   x
            x  Na           1         0.000000   0.301213   0.250000   x
            x  Na           2         0.500000   0.801217   0.250000   x
            x  Na           3         0.000000   0.698787   0.750000   x
            x  Na           4         0.500000   0.198783   0.750000   x
            x  Al           1         0.000000   0.906145   0.250000   x
            x  Al           2         0.500000   0.406146   0.250000   x
            x  Al           3         0.000000   0.093855   0.750000   x
            x  Al           4         0.500000   0.593854   0.750000   x
            x  Si           1         0.291132   0.094092   0.228300   x
            x  Si           2         0.791133   0.594092   0.228306   x
            x  Si           3         0.708868   0.094092   0.271700   x
            x  Si           4         0.208867   0.594092   0.271694   x
            x  Si           5         0.708868   0.905908   0.771700   x
            x  Si           6         0.208867   0.405908   0.771694   x
            x  Si           7         0.291132   0.905908   0.728300   x
            x  Si           8         0.791133   0.405908   0.728306   x
            xxxxxxxxxxxxxxxxxxxxxxxxxxxxxxxxxxxxxxxxxxxxxxxxxxxxxxxxxxxx
 
 
------------------------------------------------------------------------ <-- SCF
SCF loop      Energy                           Energy gain       Timer   <-- SCF
                                               per atom          (sec)   <-- SCF
------------------------------------------------------------------------ <-- SCF
Initial  -1.68461734E+004                                        214.35  <-- SCF
      1  -1.68461744E+004                    2.51216479E-005     225.74  <-- SCF
      2  -1.68461744E+004                    1.20112739E-008     236.64  <-- SCF
      3  -1.68461744E+004                    1.08352509E-010     249.00  <-- SCF
      4  -1.68461744E+004                    2.39752161E-012     262.30  <-- SCF
------------------------------------------------------------------------ <-- SCF
 
Final energy =  -16846.17442798     eV
(energy not corrected for finite basis set)
 
 
 *********************************** Forces ***********************************
 *                                                                            *
 *                        Cartesian components (eV/A)                         *
 * -------------------------------------------------------------------------- *
 *                   x                    y                    z              *
 *                                                                            *
 * O         1      0.02550             -0.02582             -0.01947         *
 * O         2      0.02536             -0.02577             -0.01950         *
 * O         3     -0.02550             -0.02582              0.01947         *
 * O         4     -0.02536             -0.02577              0.01950         *
 * O         5     -0.02550              0.02582              0.01947         *
 * O         6     -0.02536              0.02577              0.01950         *
 * O         7      0.02550              0.02582             -0.01947         *
 * O         8      0.02536              0.02577             -0.01950         *
 * O         9      0.02042             -0.03895             -0.02275         *
 * O        10      0.02047             -0.03898             -0.02274         *
 * O        11     -0.02042             -0.03895              0.02275         *
 * O        12     -0.02047             -0.03898              0.02274         *
 * O        13     -0.02042              0.03895              0.02275         *
 * O        14     -0.02047              0.03898              0.02274         *
 * O        15      0.02042              0.03895             -0.02275         *
 * O        16      0.02047              0.03898             -0.02274         *
 * O        17     -0.02201             -0.01709              0.00732         *
 * O        18     -0.02211             -0.01704              0.00726         *
 * O        19      0.02201             -0.01709             -0.00732         *
 * O        20      0.02211             -0.01704             -0.00726         *
 * O        21      0.02201              0.01709             -0.00732         *
 * O        22      0.02211              0.01704             -0.00726         *
 * O        23     -0.02201              0.01709              0.00732         *
 * O        24     -0.02211              0.01704              0.00726         *
 * Na        1      0.00000             -0.00737              0.00000         *
 * Na        2      0.00000             -0.00747              0.00000         *
 * Na        3      0.00000              0.00737              0.00000         *
 * Na        4      0.00000              0.00747              0.00000         *
 * Al        1      0.00000             -0.03708              0.00000         *
 * Al        2      0.00000             -0.03704              0.00000         *
 * Al        3      0.00000              0.03708              0.00000         *
 * Al        4      0.00000              0.03704              0.00000         *
 * Si        1     -0.00498             -0.06390             -0.01178         *
 * Si        2     -0.00506             -0.06383             -0.01180         *
 * Si        3      0.00498             -0.06390              0.01178         *
 * Si        4      0.00506             -0.06383              0.01180         *
 * Si        5      0.00498              0.06390              0.01178         *
 * Si        6      0.00506              0.06383              0.01180         *
 * Si        7     -0.00498              0.06390             -0.01178         *
 * Si        8     -0.00506              0.06383             -0.01180         *
 *                                                                            *
 ******************************************************************************
  
 +------------+-------------+-------------+-----------------+ <-- min BFGS
 |    Step    |   lambda    |   F.delta   |    enthalpy     | <-- min BFGS
 +------------+-------------+-------------+-----------------+ <-- min BFGS
 |  previous  |    0.000000 |    0.000017 |   -16835.319152 | <-- min BFGS
 | trial step |    1.000000 |    0.000015 |   -16835.319587 | <-- min BFGS
 +------------+-------------+-------------+-----------------+ <-- min BFGS
  

--------------------------------------------------------------------------------
 BFGS: improving iteration         2 with line minimization (lambda= 11.802070)
--------------------------------------------------------------------------------
 
                           -------------------------------
                                     Cell Contents
                           -------------------------------
 
            xxxxxxxxxxxxxxxxxxxxxxxxxxxxxxxxxxxxxxxxxxxxxxxxxxxxxxxxxxxx
            x  Element    Atom        Fractional coordinates of atoms  x
            x            Number           u          v          w      x
            x----------------------------------------------------------x
            x  O            1         0.109413   0.076696   0.129031   x
            x  O            2         0.609414   0.576694   0.129033   x
            x  O            3         0.890587   0.076696   0.370969   x
            x  O            4         0.390586   0.576694   0.370967   x
            x  O            5         0.890587   0.923304   0.870969   x
            x  O            6         0.390586   0.423306   0.870967   x
            x  O            7         0.109413   0.923304   0.629031   x
            x  O            8         0.609414   0.423306   0.629033   x
            x  O            9         0.360985   0.262927   0.295007   x
            x  O           10         0.860984   0.762927   0.295006   x
            x  O           11         0.639015   0.262927   0.204993   x
            x  O           12         0.139016   0.762927   0.204994   x
            x  O           13         0.639015   0.737073   0.704993   x
            x  O           14         0.139016   0.237073   0.704994   x
            x  O           15         0.360985   0.737073   0.795007   x
            x  O           16         0.860984   0.237073   0.795006   x
            x  O           17         0.353798   0.008277   1.004979   x
            x  O           18         0.853800   0.508274   1.004988   x
            x  O           19         0.646202   0.008277   0.495021   x
            x  O           20         0.146200   0.508274   0.495012   x
            x  O           21         0.646202   0.991723  -0.004979   x
            x  O           22         0.146200   0.491726  -0.004988   x
            x  O           23         0.353798   0.991723   0.504979   x
            x  O           24         0.853800   0.491726   0.504988   x
            x  Na           1         0.000000   0.301173   0.250000   x
            x  Na           2         0.500000   0.801177   0.250000   x
            x  Na           3         0.000000   0.698827   0.750000   x
            x  Na           4         0.500000   0.198823   0.750000   x
            x  Al           1         0.000000   0.905902   0.250000   x
            x  Al           2         0.500000   0.405903   0.250000   x
            x  Al           3         0.000000   0.094098   0.750000   x
            x  Al           4         0.500000   0.594097   0.750000   x
            x  Si           1         0.291154   0.093702   0.228196   x
            x  Si           2         0.791155   0.593702   0.228201   x
            x  Si           3         0.708846   0.093702   0.271804   x
            x  Si           4         0.208845   0.593702   0.271799   x
            x  Si           5         0.708846   0.906298   0.771804   x
            x  Si           6         0.208845   0.406298   0.771799   x
            x  Si           7         0.291154   0.906298   0.728196   x
            x  Si           8         0.791155   0.406298   0.728201   x
            xxxxxxxxxxxxxxxxxxxxxxxxxxxxxxxxxxxxxxxxxxxxxxxxxxxxxxxxxxxx
 
 
------------------------------------------------------------------------ <-- SCF
SCF loop      Energy                           Energy gain       Timer   <-- SCF
                                               per atom          (sec)   <-- SCF
------------------------------------------------------------------------ <-- SCF
Initial  -1.68461064E+004                                        267.31  <-- SCF
      1  -1.68461766E+004                    1.75622516E-003     278.68  <-- SCF
      2  -1.68461767E+004                    8.53748086E-007     289.98  <-- SCF
      3  -1.68461767E+004                    6.75737598E-009     301.24  <-- SCF
      4  -1.68461767E+004                    1.40757720E-010     313.09  <-- SCF
------------------------------------------------------------------------ <-- SCF
 
Final energy =  -16846.17666787     eV
(energy not corrected for finite basis set)
 
 
 *********************************** Forces ***********************************
 *                                                                            *
 *                        Cartesian components (eV/A)                         *
 * -------------------------------------------------------------------------- *
 *                   x                    y                    z              *
 *                                                                            *
 * O         1     -0.02504             -0.03194             -0.01078         *
 * O         2     -0.02497             -0.03186             -0.01077         *
 * O         3      0.02504             -0.03194              0.01078         *
 * O         4      0.02497             -0.03186              0.01077         *
 * O         5      0.02504              0.03194              0.01078         *
 * O         6      0.02497              0.03186              0.01077         *
 * O         7     -0.02504              0.03194             -0.01078         *
 * O         8     -0.02497              0.03186             -0.01077         *
 * O         9      0.01489             -0.04099             -0.01634         *
 * O        10      0.01495             -0.04094             -0.01631         *
 * O        11     -0.01489             -0.04099              0.01634         *
 * O        12     -0.01495             -0.04094              0.01631         *
 * O        13     -0.01489              0.04099              0.01634         *
 * O        14     -0.01495              0.04094              0.01631         *
 * O        15      0.01489              0.04099             -0.01634         *
 * O        16      0.01495              0.04094             -0.01631         *
 * O        17      0.02942             -0.01755             -0.00797         *
 * O        18      0.02929             -0.01752             -0.00802         *
 * O        19     -0.02942             -0.01755              0.00797         *
 * O        20     -0.02929             -0.01752              0.00802         *
 * O        21     -0.02942              0.01755              0.00797         *
 * O        22     -0.02929              0.01752              0.00802         *
 * O        23      0.02942              0.01755             -0.00797         *
 * O        24      0.02929              0.01752             -0.00802         *
 * Na        1      0.00000             -0.01956              0.00000         *
 * Na        2      0.00000             -0.01965              0.00000         *
 * Na        3      0.00000              0.01956              0.00000         *
 * Na        4      0.00000              0.01965              0.00000         *
 * Al        1      0.00000             -0.03424              0.00000         *
 * Al        2      0.00000             -0.03425              0.00000         *
 * Al        3      0.00000              0.03424              0.00000         *
 * Al        4      0.00000              0.03425              0.00000         *
 * Si        1     -0.01109              0.05155              0.00272         *
 * Si        2     -0.01123              0.05143              0.00268         *
 * Si        3      0.01109              0.05155             -0.00272         *
 * Si        4      0.01123              0.05143             -0.00268         *
 * Si        5      0.01109             -0.05155             -0.00272         *
 * Si        6      0.01123             -0.05143             -0.00268         *
 * Si        7     -0.01109             -0.05155              0.00272         *
 * Si        8     -0.01123             -0.05143              0.00268         *
 *                                                                            *
 ******************************************************************************
  
 +------------+-------------+-------------+-----------------+ <-- min BFGS
 |    Step    |   lambda    |   F.delta   |    enthalpy     | <-- min BFGS
 +------------+-------------+-------------+-----------------+ <-- min BFGS
 |  previous  |    0.000000 |    0.000017 |   -16835.319152 | <-- min BFGS
 | trial step |    1.000000 |    0.000015 |   -16835.319587 | <-- min BFGS
 |  line step |   11.802070 |    0.000000 |   -16835.321827 | <-- min BFGS
 +------------+-------------+-------------+-----------------+ <-- min BFGS
  
 BFGS: finished iteration     2 with enthalpy= -1.68353218E+004 eV
  
 +-----------+-----------------+-----------------+------------+-----+ <-- BFGS
 | Parameter |      value      |    tolerance    |    units   | OK? | <-- BFGS
 +-----------+-----------------+-----------------+------------+-----+ <-- BFGS
 |  dE/ion   |   6.686957E-005 |   2.000000E-007 |         eV | No  | <-- BFGS
 |  |F|max   |   5.280122E-002 |   1.000000E-003 |       eV/A | No  | <-- BFGS
 |  |dR|max  |   3.744125E-003 |   1.000000E-003 |          A | No  | <-- BFGS
 +-----------+-----------------+-----------------+------------+-----+ <-- BFGS
  

================================================================================
 Starting BFGS iteration          3 ...
================================================================================
 
Writing model to jadeite_4_30_GPa_cij__3__3.check
  
 +------------+-------------+-------------+-----------------+ <-- min BFGS
 |    Step    |   lambda    |   F.delta   |    enthalpy     | <-- min BFGS
 +------------+-------------+-------------+-----------------+ <-- min BFGS
 |  previous  |    0.000000 |    0.000021 |   -16835.321827 | <-- min BFGS
 +------------+-------------+-------------+-----------------+ <-- min BFGS
  

--------------------------------------------------------------------------------
 BFGS: starting iteration         3 with trial guess (lambda=  1.000000)
--------------------------------------------------------------------------------
 
                           -------------------------------
                                     Cell Contents
                           -------------------------------
 
            xxxxxxxxxxxxxxxxxxxxxxxxxxxxxxxxxxxxxxxxxxxxxxxxxxxxxxxxxxxx
            x  Element    Atom        Fractional coordinates of atoms  x
            x            Number           u          v          w      x
            x----------------------------------------------------------x
            x  O            1         0.109417   0.076650   0.128995   x
            x  O            2         0.609417   0.576649   0.128997   x
            x  O            3         0.890583   0.076650   0.371005   x
            x  O            4         0.390583   0.576649   0.371003   x
            x  O            5         0.890583   0.923350   0.871005   x
            x  O            6         0.390583   0.423351   0.871003   x
            x  O            7         0.109417   0.923350   0.628995   x
            x  O            8         0.609417   0.423351   0.628997   x
            x  O            9         0.360989   0.262820   0.294956   x
            x  O           10         0.860989   0.762821   0.294956   x
            x  O           11         0.639011   0.262820   0.205044   x
            x  O           12         0.139011   0.762821   0.205044   x
            x  O           13         0.639011   0.737180   0.705044   x
            x  O           14         0.139011   0.237179   0.705044   x
            x  O           15         0.360989   0.737180   0.794956   x
            x  O           16         0.860989   0.237179   0.794956   x
            x  O           17         0.353789   0.008247   1.004973   x
            x  O           18         0.853791   0.508244   1.004981   x
            x  O           19         0.646211   0.008247   0.495027   x
            x  O           20         0.146209   0.508244   0.495019   x
            x  O           21         0.646211   0.991753  -0.004973   x
            x  O           22         0.146209   0.491756  -0.004981   x
            x  O           23         0.353789   0.991753   0.504973   x
            x  O           24         0.853791   0.491756   0.504981   x
            x  Na           1         0.000000   0.301156   0.250000   x
            x  Na           2         0.500000   0.801159   0.250000   x
            x  Na           3         0.000000   0.698844   0.750000   x
            x  Na           4         0.500000   0.198841   0.750000   x
            x  Al           1         0.000000   0.905842   0.250000   x
            x  Al           2         0.500000   0.405843   0.250000   x
            x  Al           3         0.000000   0.094158   0.750000   x
            x  Al           4         0.500000   0.594157   0.750000   x
            x  Si           1         0.291175   0.093710   0.228201   x
            x  Si           2         0.791176   0.593710   0.228206   x
            x  Si           3         0.708825   0.093710   0.271799   x
            x  Si           4         0.208824   0.593710   0.271794   x
            x  Si           5         0.708825   0.906290   0.771799   x
            x  Si           6         0.208824   0.406290   0.771794   x
            x  Si           7         0.291175   0.906290   0.728201   x
            x  Si           8         0.791176   0.406290   0.728206   x
            xxxxxxxxxxxxxxxxxxxxxxxxxxxxxxxxxxxxxxxxxxxxxxxxxxxxxxxxxxxx
 
 
------------------------------------------------------------------------ <-- SCF
SCF loop      Energy                           Energy gain       Timer   <-- SCF
                                               per atom          (sec)   <-- SCF
------------------------------------------------------------------------ <-- SCF
Initial  -1.68461709E+004                                        318.68  <-- SCF
      1  -1.68461771E+004                    1.53271876E-004     329.96  <-- SCF
      2  -1.68461771E+004                    5.94130603E-008     341.22  <-- SCF
      3  -1.68461771E+004                    5.37431537E-010     352.49  <-- SCF
      4  -1.68461771E+004                    1.13688928E-011     364.77  <-- SCF
------------------------------------------------------------------------ <-- SCF
 
Final energy =  -16846.17707515     eV
(energy not corrected for finite basis set)
 
 
 *********************************** Forces ***********************************
 *                                                                            *
 *                        Cartesian components (eV/A)                         *
 * -------------------------------------------------------------------------- *
 *                   x                    y                    z              *
 *                                                                            *
 * O         1     -0.02189             -0.02800             -0.01083         *
 * O         2     -0.02183             -0.02793             -0.01082         *
 * O         3      0.02189             -0.02800              0.01083         *
 * O         4      0.02183             -0.02793              0.01082         *
 * O         5      0.02189              0.02800              0.01083         *
 * O         6      0.02183              0.02793              0.01082         *
 * O         7     -0.02189              0.02800             -0.01083         *
 * O         8     -0.02183              0.02793             -0.01082         *
 * O         9      0.02803             -0.00791             -0.01474         *
 * O        10      0.02805             -0.00790             -0.01471         *
 * O        11     -0.02803             -0.00791              0.01474         *
 * O        12     -0.02805             -0.00790              0.01471         *
 * O        13     -0.02803              0.00791              0.01474         *
 * O        14     -0.02805              0.00790              0.01471         *
 * O        15      0.02803              0.00791             -0.01474         *
 * O        16      0.02805              0.00790             -0.01471         *
 * O        17      0.03085             -0.01349             -0.00465         *
 * O        18      0.03071             -0.01347             -0.00470         *
 * O        19     -0.03085             -0.01349              0.00465         *
 * O        20     -0.03071             -0.01347              0.00470         *
 * O        21     -0.03085              0.01349              0.00465         *
 * O        22     -0.03071              0.01347              0.00470         *
 * O        23      0.03085              0.01349             -0.00465         *
 * O        24      0.03071              0.01347             -0.00470         *
 * Na        1      0.00000             -0.01942              0.00000         *
 * Na        2      0.00000             -0.01950              0.00000         *
 * Na        3      0.00000              0.01942              0.00000         *
 * Na        4      0.00000              0.01950              0.00000         *
 * Al        1      0.00000             -0.02855              0.00000         *
 * Al        2      0.00000             -0.02858              0.00000         *
 * Al        3      0.00000              0.02855              0.00000         *
 * Al        4      0.00000              0.02858              0.00000         *
 * Si        1     -0.02754              0.02315             -0.00258         *
 * Si        2     -0.02763              0.02307             -0.00262         *
 * Si        3      0.02754              0.02315              0.00258         *
 * Si        4      0.02763              0.02307              0.00262         *
 * Si        5      0.02754             -0.02315              0.00258         *
 * Si        6      0.02763             -0.02307              0.00262         *
 * Si        7     -0.02754             -0.02315             -0.00258         *
 * Si        8     -0.02763             -0.02307             -0.00262         *
 *                                                                            *
 ******************************************************************************
  
 +------------+-------------+-------------+-----------------+ <-- min BFGS
 |    Step    |   lambda    |   F.delta   |    enthalpy     | <-- min BFGS
 +------------+-------------+-------------+-----------------+ <-- min BFGS
 |  previous  |    0.000000 |    0.000021 |   -16835.321827 | <-- min BFGS
 | trial step |    1.000000 |    0.000009 |   -16835.322234 | <-- min BFGS
 +------------+-------------+-------------+-----------------+ <-- min BFGS
  

--------------------------------------------------------------------------------
 BFGS: improving iteration         3 with line minimization (lambda=  1.793379)
--------------------------------------------------------------------------------
 
                           -------------------------------
                                     Cell Contents
                           -------------------------------
 
            xxxxxxxxxxxxxxxxxxxxxxxxxxxxxxxxxxxxxxxxxxxxxxxxxxxxxxxxxxxx
            x  Element    Atom        Fractional coordinates of atoms  x
            x            Number           u          v          w      x
            x----------------------------------------------------------x
            x  O            1         0.109419   0.076614   0.128967   x
            x  O            2         0.609420   0.576613   0.128968   x
            x  O            3         0.890581   0.076614   0.371033   x
            x  O            4         0.390580   0.576613   0.371032   x
            x  O            5         0.890581   0.923386   0.871033   x
            x  O            6         0.390580   0.423387   0.871032   x
            x  O            7         0.109419   0.923386   0.628967   x
            x  O            8         0.609420   0.423387   0.628968   x
            x  O            9         0.360993   0.262736   0.294916   x
            x  O           10         0.860993   0.762736   0.294916   x
            x  O           11         0.639007   0.262736   0.205084   x
            x  O           12         0.139007   0.762736   0.205084   x
            x  O           13         0.639007   0.737264   0.705084   x
            x  O           14         0.139007   0.237264   0.705084   x
            x  O           15         0.360993   0.737264   0.794916   x
            x  O           16         0.860993   0.237264   0.794916   x
            x  O           17         0.353781   0.008222   1.004967   x
            x  O           18         0.853783   0.508220   1.004976   x
            x  O           19         0.646219   0.008222   0.495033   x
            x  O           20         0.146217   0.508220   0.495024   x
            x  O           21         0.646219   0.991778  -0.004967   x
            x  O           22         0.146217   0.491780  -0.004976   x
            x  O           23         0.353781   0.991778   0.504967   x
            x  O           24         0.853783   0.491780   0.504976   x
            x  Na           1         0.000000   0.301142   0.250000   x
            x  Na           2         0.500000   0.801146   0.250000   x
            x  Na           3         0.000000   0.698858   0.750000   x
            x  Na           4         0.500000   0.198854   0.750000   x
            x  Al           1         0.000000   0.905795   0.250000   x
            x  Al           2         0.500000   0.405796   0.250000   x
            x  Al           3         0.000000   0.094205   0.750000   x
            x  Al           4         0.500000   0.594204   0.750000   x
            x  Si           1         0.291192   0.093717   0.228206   x
            x  Si           2         0.791193   0.593716   0.228211   x
            x  Si           3         0.708808   0.093717   0.271794   x
            x  Si           4         0.208807   0.593716   0.271789   x
            x  Si           5         0.708808   0.906283   0.771794   x
            x  Si           6         0.208807   0.406284   0.771789   x
            x  Si           7         0.291192   0.906283   0.728206   x
            x  Si           8         0.791193   0.406284   0.728211   x
            xxxxxxxxxxxxxxxxxxxxxxxxxxxxxxxxxxxxxxxxxxxxxxxxxxxxxxxxxxxx
 
 
------------------------------------------------------------------------ <-- SCF
SCF loop      Energy                           Energy gain       Timer   <-- SCF
                                               per atom          (sec)   <-- SCF
------------------------------------------------------------------------ <-- SCF
Initial  -1.68461728E+004                                        369.71  <-- SCF
      1  -1.68461772E+004                    1.09498689E-004     381.08  <-- SCF
      2  -1.68461772E+004                    4.29594109E-008     392.32  <-- SCF
      3  -1.68461772E+004                    3.92806846E-010     403.57  <-- SCF
      4  -1.68461772E+004                    8.35265592E-012     416.34  <-- SCF
------------------------------------------------------------------------ <-- SCF
 
Final energy =  -16846.17717380     eV
(energy not corrected for finite basis set)
 
 
 *********************************** Forces ***********************************
 *                                                                            *
 *                        Cartesian components (eV/A)                         *
 * -------------------------------------------------------------------------- *
 *                   x                    y                    z              *
 *                                                                            *
 * O         1     -0.01939             -0.02486             -0.01086         *
 * O         2     -0.01934             -0.02479             -0.01086         *
 * O         3      0.01939             -0.02486              0.01086         *
 * O         4      0.01934             -0.02479              0.01086         *
 * O         5      0.01939              0.02486              0.01086         *
 * O         6      0.01934              0.02479              0.01086         *
 * O         7     -0.01939              0.02486             -0.01086         *
 * O         8     -0.01934              0.02479             -0.01086         *
 * O         9      0.03850              0.01847             -0.01346         *
 * O        10      0.03849              0.01845             -0.01343         *
 * O        11     -0.03850              0.01847              0.01346         *
 * O        12     -0.03849              0.01845              0.01343         *
 * O        13     -0.03850             -0.01847              0.01346         *
 * O        14     -0.03849             -0.01845              0.01343         *
 * O        15      0.03850             -0.01847             -0.01346         *
 * O        16      0.03849             -0.01845             -0.01343         *
 * O        17      0.03199             -0.01026             -0.00201         *
 * O        18      0.03185             -0.01024             -0.00207         *
 * O        19     -0.03199             -0.01026              0.00201         *
 * O        20     -0.03185             -0.01024              0.00207         *
 * O        21     -0.03199              0.01026              0.00201         *
 * O        22     -0.03185              0.01024              0.00207         *
 * O        23      0.03199              0.01026             -0.00201         *
 * O        24      0.03185              0.01024             -0.00207         *
 * Na        1      0.00000             -0.01931              0.00000         *
 * Na        2      0.00000             -0.01938              0.00000         *
 * Na        3      0.00000              0.01931              0.00000         *
 * Na        4      0.00000              0.01938              0.00000         *
 * Al        1      0.00000             -0.02402              0.00000         *
 * Al        2      0.00000             -0.02407              0.00000         *
 * Al        3      0.00000              0.02402              0.00000         *
 * Al        4      0.00000              0.02407              0.00000         *
 * Si        1     -0.04065              0.00050             -0.00680         *
 * Si        2     -0.04070              0.00044             -0.00683         *
 * Si        3      0.04065              0.00050              0.00680         *
 * Si        4      0.04070              0.00044              0.00683         *
 * Si        5      0.04065             -0.00050              0.00680         *
 * Si        6      0.04070             -0.00044              0.00683         *
 * Si        7     -0.04065             -0.00050             -0.00680         *
 * Si        8     -0.04070             -0.00044             -0.00683         *
 *                                                                            *
 ******************************************************************************
  
 +------------+-------------+-------------+-----------------+ <-- min BFGS
 |    Step    |   lambda    |   F.delta   |    enthalpy     | <-- min BFGS
 +------------+-------------+-------------+-----------------+ <-- min BFGS
 |  previous  |    0.000000 |    0.000021 |   -16835.321827 | <-- min BFGS
 | trial step |    1.000000 |    0.000009 |   -16835.322234 | <-- min BFGS
 |  line step |    1.793379 |    0.000000 |   -16835.322333 | <-- min BFGS
 +------------+-------------+-------------+-----------------+ <-- min BFGS
  
 BFGS: finished iteration     3 with enthalpy= -1.68353223E+004 eV
  
 +-----------+-----------------+-----------------+------------+-----+ <-- BFGS
 | Parameter |      value      |    tolerance    |    units   | OK? | <-- BFGS
 +-----------+-----------------+-----------------+------------+-----+ <-- BFGS
 |  dE/ion   |   1.264823E-005 |   2.000000E-007 |         eV | No  | <-- BFGS
 |  |F|max   |   4.476933E-002 |   1.000000E-003 |       eV/A | No  | <-- BFGS
 |  |dR|max  |   1.722828E-003 |   1.000000E-003 |          A | No  | <-- BFGS
 +-----------+-----------------+-----------------+------------+-----+ <-- BFGS
  

================================================================================
 Starting BFGS iteration          4 ...
================================================================================
 
Writing model to jadeite_4_30_GPa_cij__3__3.check
  
 +------------+-------------+-------------+-----------------+ <-- min BFGS
[...]
            x  O           20         0.145972   0.507673   0.494635   x
            x  O           21         0.645972   0.992327  -0.005364   x
            x  O           22         0.145972   0.492327  -0.005365   x
            x  O           23         0.354028   0.992327   0.505364   x
            x  O           24         0.854028   0.492327   0.505365   x
            x  Na           1         0.000000   0.300475   0.250000   x
            x  Na           2         0.500000   0.800475   0.250000   x
            x  Na           3         0.000000   0.699525   0.750000   x
            x  Na           4         0.500000   0.199525   0.750000   x
            x  Al           1         0.000000   0.905606   0.250000   x
            x  Al           2         0.500000   0.405606   0.250000   x
            x  Al           3         0.000000   0.094394   0.750000   x
            x  Al           4         0.500000   0.594394   0.750000   x
            x  Si           1         0.291133   0.093615   0.227849   x
            x  Si           2         0.791134   0.593616   0.227850   x
            x  Si           3         0.708867   0.093615   0.272151   x
            x  Si           4         0.208866   0.593616   0.272150   x
            x  Si           5         0.708867   0.906385   0.772151   x
            x  Si           6         0.208866   0.406384   0.772150   x
            x  Si           7         0.291133   0.906385   0.727849   x
            x  Si           8         0.791134   0.406384   0.727850   x
            xxxxxxxxxxxxxxxxxxxxxxxxxxxxxxxxxxxxxxxxxxxxxxxxxxxxxxxxxxxx
 
 
 BFGS: Final Enthalpy     = -1.68353240E+004 eV
 BFGS: Final <frequency>  =    1012.65786 cm-1
 
 ***************************** Symmetrised Forces *****************************
 *                                                                            *
 *                        Cartesian components (eV/A)                         *
 * -------------------------------------------------------------------------- *
 *                   x                    y                    z              *
 *                                                                            *
 * O         1     -0.00050             -0.00046             -0.00013         *
 * O         2     -0.00008             -0.00036             -0.00013         *
 * O         3      0.00050             -0.00046              0.00013         *
 * O         4      0.00008             -0.00036              0.00013         *
 * O         5      0.00050              0.00046              0.00013         *
 * O         6      0.00008              0.00036              0.00013         *
 * O         7     -0.00050              0.00046             -0.00013         *
 * O         8     -0.00008              0.00036             -0.00013         *
 * O         9     -0.00014             -0.00032              0.00020         *
 * O        10      0.00016              0.00016              0.00021         *
 * O        11      0.00014             -0.00032             -0.00020         *
 * O        12     -0.00016              0.00016             -0.00021         *
 * O        13      0.00014              0.00032             -0.00020         *
 * O        14     -0.00016             -0.00016             -0.00021         *
 * O        15     -0.00014              0.00032              0.00020         *
 * O        16      0.00016             -0.00016              0.00021         *
 * O        17     -0.00004              0.00008             -0.00010         *
 * O        18      0.00005              0.00010             -0.00007         *
 * O        19      0.00004              0.00008              0.00010         *
 * O        20     -0.00005              0.00010              0.00007         *
 * O        21      0.00004             -0.00008              0.00010         *
 * O        22     -0.00005             -0.00010              0.00007         *
 * O        23     -0.00004             -0.00008             -0.00010         *
 * O        24      0.00005             -0.00010             -0.00007         *
 * Na        1      0.00000             -0.00049              0.00000         *
 * Na        2      0.00000             -0.00054              0.00000         *
 * Na        3      0.00000              0.00049              0.00000         *
 * Na        4      0.00000              0.00054              0.00000         *
 * Al        1      0.00000              0.00086              0.00000         *
 * Al        2      0.00000              0.00097              0.00000         *
 * Al        3      0.00000             -0.00086              0.00000         *
 * Al        4      0.00000             -0.00097              0.00000         *
 * Si        1      0.00027             -0.00003              0.00051         *
 * Si        2     -0.00044             -0.00054              0.00045         *
 * Si        3     -0.00027             -0.00003             -0.00051         *
 * Si        4      0.00044             -0.00054             -0.00045         *
 * Si        5     -0.00027              0.00003             -0.00051         *
 * Si        6      0.00044              0.00054             -0.00045         *
 * Si        7      0.00027              0.00003              0.00051         *
 * Si        8     -0.00044              0.00054              0.00045         *
 *                                                                            *
 ******************************************************************************
 
 *********** Symmetrised Stress Tensor ***********
 *                                               *
 *          Cartesian components (GPa)           *
 * --------------------------------------------- *
 *             x             y             z     *
 *                                               *
 *  x     -3.382663      0.000000      0.105845  *
 *  y      0.000000     -2.127704      0.000000  *
 *  z      0.105845      0.000000     -3.456607  *
 *                                               *
 *  Pressure:    2.9890                          *
 *                                               *
 *************************************************
 
 Pseudo atomic calculation performed for O 2s2 2p4
 
 Converged in 36 iterations to a total energy of -429.6485 eV
 
 
 Pseudo atomic calculation performed for Na 2s2 2p6 3s1
 
 Converged in 33 iterations to a total energy of -1302.8467 eV
 
 
 Pseudo atomic calculation performed for Al 3s2 3p1
 
 Converged in 20 iterations to a total energy of -52.7392 eV
 
 
 Pseudo atomic calculation performed for Si 3s2 3p2
 
 Converged in 21 iterations to a total energy of -101.9044 eV
 
Charge spilling parameter for spin component 1 = 0.85%
 
     Atomic Populations (Mulliken)
     -----------------------------
Species   Ion     s      p      d      f     Total  Charge (e)
==============================================================
  O        1     1.85   5.24   0.00   0.00   7.08    -1.08
  O        2     1.85   5.24   0.00   0.00   7.08    -1.08
  O        3     1.85   5.24   0.00   0.00   7.08    -1.08
  O        4     1.85   5.24   0.00   0.00   7.08    -1.08
  O        5     1.85   5.24   0.00   0.00   7.08    -1.08
  O        6     1.85   5.24   0.00   0.00   7.08    -1.08
  O        7     1.85   5.24   0.00   0.00   7.08    -1.08
  O        8     1.85   5.24   0.00   0.00   7.08    -1.08
  O        9     1.84   5.29   0.00   0.00   7.12    -1.12
  O       10     1.84   5.29   0.00   0.00   7.12    -1.12
  O       11     1.84   5.29   0.00   0.00   7.12    -1.12
  O       12     1.84   5.29   0.00   0.00   7.12    -1.12
  O       13     1.84   5.29   0.00   0.00   7.12    -1.12
  O       14     1.84   5.29   0.00   0.00   7.12    -1.12
  O       15     1.84   5.29   0.00   0.00   7.12    -1.12
  O       16     1.84   5.29   0.00   0.00   7.12    -1.12
  O       17     1.83   5.30   0.00   0.00   7.12    -1.12
  O       18     1.83   5.30   0.00   0.00   7.12    -1.12
  O       19     1.83   5.30   0.00   0.00   7.12    -1.12
  O       20     1.83   5.30   0.00   0.00   7.12    -1.12
  O       21     1.83   5.30   0.00   0.00   7.12    -1.12
  O       22     1.83   5.30   0.00   0.00   7.12    -1.12
  O       23     1.83   5.30   0.00   0.00   7.12    -1.12
  O       24     1.83   5.30   0.00   0.00   7.12    -1.12
  Na       1     2.04   5.78   0.00   0.00   7.82     1.18
  Na       2     2.04   5.78   0.00   0.00   7.82     1.18
  Na       3     2.04   5.78   0.00   0.00   7.82     1.18
  Na       4     2.04   5.78   0.00   0.00   7.82     1.18
  Al       1     0.51   0.92   0.00   0.00   1.43     1.57
  Al       2     0.51   0.92   0.00   0.00   1.43     1.57
  Al       3     0.51   0.92   0.00   0.00   1.43     1.57
  Al       4     0.51   0.92   0.00   0.00   1.43     1.57
  Si       1     0.69   1.36   0.00   0.00   2.05     1.95
  Si       2     0.69   1.36   0.00   0.00   2.05     1.95
  Si       3     0.69   1.36   0.00   0.00   2.05     1.95
  Si       4     0.69   1.36   0.00   0.00   2.05     1.95
  Si       5     0.69   1.36   0.00   0.00   2.05     1.95
  Si       6     0.69   1.36   0.00   0.00   2.05     1.95
  Si       7     0.69   1.36   0.00   0.00   2.05     1.95
  Si       8     0.69   1.36   0.00   0.00   2.05     1.95
==============================================================
 
     Bond                     Population      Length (A)
============================================================
   O 016 --   Si 008               0.76        1.59494
   O 014 --   Si 006               0.76        1.59494
   O 012 --   Si 004               0.76        1.59494
   O 010 --   Si 002               0.76        1.59494
   O 013 --   Si 005               0.76        1.59495
   O 015 --   Si 007               0.76        1.59495
   O 011 --   Si 003               0.76        1.59495
   O 009 --   Si 001               0.76        1.59495
   O 017 --   Si 001               0.56        1.63171
   O 019 --   Si 003               0.56        1.63171
   O 023 --   Si 007               0.56        1.63171
   O 021 --   Si 005               0.56        1.63171
   O 018 --   Si 002               0.56        1.63171
   O 024 --   Si 008               0.56        1.63171
   O 022 --   Si 006               0.56        1.63171
   O 020 --   Si 004               0.56        1.63171
   O 005 --   Si 005               0.59        1.63914
   O 003 --   Si 003               0.59        1.63914
   O 001 --   Si 001               0.59        1.63914
   O 007 --   Si 007               0.59        1.63914
   O 006 --   Si 006               0.59        1.63915
   O 004 --   Si 004               0.59        1.63915
   O 008 --   Si 008               0.59        1.63915
   O 002 --   Si 002               0.59        1.63915
   O 022 --   Si 004               0.58        1.64233
   O 020 --   Si 006               0.58        1.64233
   O 024 --   Si 002               0.58        1.64233
   O 018 --   Si 008               0.58        1.64233
   O 023 --   Si 001               0.58        1.64233
   O 021 --   Si 003               0.58        1.64233
   O 019 --   Si 005               0.58        1.64233
   O 017 --   Si 007               0.58        1.64233
   O 015 --   Al 004               0.42        1.86148
   O 013 --   Al 004               0.42        1.86148
   O 009 --   Al 002               0.42        1.86148
   O 011 --   Al 002               0.42        1.86148
   O 012 --   Al 001               0.42        1.86149
   O 010 --   Al 001               0.42        1.86149
   O 016 --   Al 003               0.42        1.86149
   O 014 --   Al 003               0.42        1.86149
   O 004 --   Al 004               0.33        1.94190
   O 002 --   Al 004               0.33        1.94190
   O 008 --   Al 002               0.33        1.94190
   O 006 --   Al 002               0.33        1.94190
   O 005 --   Al 001               0.33        1.94190
   O 007 --   Al 001               0.33        1.94190
   O 001 --   Al 003               0.33        1.94190
   O 003 --   Al 003               0.33        1.94190
   O 008 --   Al 004               0.31        2.00504
   O 006 --   Al 004               0.31        2.00504
   O 002 --   Al 002               0.31        2.00504
   O 004 --   Al 002               0.31        2.00504
   O 001 --   Al 001               0.31        2.00504
   O 007 --   Al 003               0.31        2.00504
   O 005 --   Al 003               0.31        2.00504
   O 003 --   Al 001               0.31        2.00504
   O 007 --   Na 003              -0.01        2.36545
   O 001 --   Na 001              -0.01        2.36545
   O 005 --   Na 003              -0.01        2.36545
   O 003 --   Na 001              -0.01        2.36545
   O 008 --   Na 004              -0.01        2.36545
   O 006 --   Na 004              -0.01        2.36545
   O 004 --   Na 002              -0.01        2.36545
   O 002 --   Na 002              -0.01        2.36545
   O 023 --   Na 004              -0.04        2.37917
   O 021 --   Na 004              -0.04        2.37917
   O 017 --   Na 002              -0.04        2.37917
   O 019 --   Na 002              -0.04        2.37917
   O 022 --   Na 003              -0.04        2.37917
   O 024 --   Na 003              -0.04        2.37917
   O 018 --   Na 001              -0.04        2.37917
   O 020 --   Na 001              -0.04        2.37917
   O 011 --   Na 004              -0.05        2.40834
   O 009 --   Na 004              -0.05        2.40834
   O 015 --   Na 002              -0.05        2.40834
   O 013 --   Na 002              -0.05        2.40834
   O 016 --   Na 001              -0.05        2.40834
   O 012 --   Na 003              -0.05        2.40834
   O 014 --   Na 001              -0.05        2.40834
   O 010 --   Na 003              -0.05        2.40834
   O 004 --    O 008              -0.10        2.47343
   O 002 --    O 006              -0.10        2.47343
   O 001 --    O 005              -0.10        2.47343
   O 003 --    O 007              -0.10        2.47343
   O 012 --    O 022              -0.10        2.58921
   O 010 --    O 024              -0.10        2.58921
   O 014 --    O 020              -0.10        2.58921
   O 016 --    O 018              -0.10        2.58921
   O 011 --    O 021              -0.10        2.58921
   O 009 --    O 023              -0.10        2.58921
   O 013 --    O 019              -0.10        2.58921
   O 015 --    O 017              -0.10        2.58921
   O 018 --    O 024              -0.17        2.61331
   O 020 --    O 022              -0.17        2.61331
   O 017 --    O 023              -0.17        2.61331
   O 019 --    O 021              -0.17        2.61331
   O 005 --    O 021              -0.09        2.63875
   O 003 --    O 019              -0.09        2.63875
   O 001 --    O 017              -0.09        2.63875
   O 007 --    O 023              -0.09        2.63875
   O 002 --    O 018              -0.09        2.63875
   O 006 --    O 022              -0.09        2.63875
   O 004 --    O 020              -0.09        2.63875
   O 008 --    O 024              -0.09        2.63875
   O 003 --    O 021              -0.08        2.64080
   O 005 --    O 019              -0.08        2.64080
   O 001 --    O 023              -0.08        2.64080
   O 007 --    O 017              -0.08        2.64080
   O 006 --    O 020              -0.08        2.64080
   O 004 --    O 022              -0.08        2.64080
   O 002 --    O 024              -0.08        2.64080
   O 008 --    O 018              -0.08        2.64080
   O 010 --    O 018              -0.08        2.65617
   O 016 --    O 024              -0.08        2.65617
   O 014 --    O 022              -0.08        2.65617
   O 012 --    O 020              -0.08        2.65617
   O 009 --    O 017              -0.08        2.65617
   O 011 --    O 019              -0.08        2.65617
   O 013 --    O 021              -0.08        2.65617
   O 015 --    O 023              -0.08        2.65617
   O 004 --    O 015              -0.07        2.69253
   O 002 --    O 013              -0.07        2.69253
   O 006 --    O 009              -0.07        2.69253
   O 008 --    O 011              -0.07        2.69253
   O 005 --    O 010              -0.07        2.69253
   O 007 --    O 012              -0.07        2.69253
   O 003 --    O 016              -0.07        2.69253
   O 001 --    O 014              -0.07        2.69253
   O 006 --    O 008              -0.05        2.72263
   O 002 --    O 004              -0.05        2.72263
   O 001 --    O 003              -0.05        2.72264
   O 005 --    O 007              -0.05        2.72264
   O 006 --    O 015              -0.05        2.73679
   O 008 --    O 013              -0.05        2.73679
   O 004 --    O 009              -0.05        2.73679
   O 002 --    O 011              -0.05        2.73679
   O 003 --    O 010              -0.05        2.73680
   O 001 --    O 012              -0.05        2.73680
   O 007 --    O 014              -0.05        2.73680
   O 005 --    O 016              -0.05        2.73680
   O 019 --   Na 004              -0.02        2.73980
   O 023 --   Na 002              -0.02        2.73980
   O 017 --   Na 004              -0.02        2.73980
   O 021 --   Na 002              -0.02        2.73980
   O 020 --   Na 003              -0.02        2.73980
   O 022 --   Na 001              -0.02        2.73980
   O 024 --   Na 001              -0.02        2.73980
   O 018 --   Na 003              -0.02        2.73980
   O 020 --    O 024              -0.04        2.76957
   O 018 --    O 022              -0.04        2.76957
   O 019 --    O 023              -0.04        2.76957
   O 017 --    O 021              -0.04        2.76957
   O 006 --    O 014              -0.06        2.77854
   O 008 --    O 016              -0.06        2.77854
   O 004 --    O 012              -0.06        2.77854
   O 002 --    O 010              -0.06        2.77854
   O 003 --    O 011              -0.06        2.77855
   O 005 --    O 013              -0.06        2.77855
   O 001 --    O 009              -0.06        2.77855
   O 007 --    O 015              -0.06        2.77855
   O 013 --    O 015              -0.05        2.78894
   O 009 --    O 011              -0.05        2.78894
   O 014 --    O 016              -0.05        2.78895
   O 010 --    O 012              -0.05        2.78895
   O 002 --    O 015              -0.04        2.82753
   O 008 --    O 009              -0.04        2.82753
   O 004 --    O 013              -0.04        2.82753
   O 006 --    O 011              -0.04        2.82753
   O 007 --    O 010              -0.04        2.82753
   O 005 --    O 012              -0.04        2.82753
   O 001 --    O 016              -0.04        2.82753
   O 003 --    O 014              -0.04        2.82753
   O 002 --    O 008              -0.06        2.92273
   O 004 --    O 006              -0.06        2.92273
   O 003 --    O 005              -0.06        2.92273
   O 001 --    O 007              -0.06        2.92273
   O 016 --    O 019              -0.02        2.92745
   O 010 --    O 021              -0.02        2.92745
   O 014 --    O 017              -0.02        2.92745
   O 012 --    O 023              -0.02        2.92745
   O 013 --    O 018              -0.02        2.92745
   O 015 --    O 020              -0.02        2.92745
   O 011 --    O 024              -0.02        2.92745
   O 009 --    O 022              -0.02        2.92745
============================================================
 
 
Writing model to jadeite_4_30_GPa_cij__3__3.check
 
Writing analysis data to jadeite_4_30_GPa_cij__3__3.castep_bin
Initialisation time =      1.95 s
Calculation time    =   1593.61 s
Finalisation time   =      0.77 s
Total time          =   1596.33 s
Peak Memory Use     = 222020 kB
