 +-------------------------------------------------+
 |                                                 |
 |      CCC   AA    SSS  TTTTT  EEEEE  PPPP        |
 |     C     A  A  S       T    E      P   P       |
 |     C     AAAA   SS     T    EEE    PPPP        |
 |     C     A  A     S    T    E      P           |
 |      CCC  A  A  SSS     T    EEEEE  P           |
 |                                                 |
 +-------------------------------------------------+
 |                                                 |
 | Welcome to Academic Release CASTEP version 5.02 |
 | Ab Initio Total Energy Program                  |
 |                                                 |
 | Authors:                                        |
 | M. Segall, M. Probert, C. Pickard, P. Hasnip,   |
 | S. Clark, K. Refson, M. Payne                   |
 |                                                 |
 | Contributors:                                   |
 | P. Lindan, P. Haynes, J. White, V. Milman,      |
 | N. Govind, M. Gibson, P. Tulip, V. Cocula,      |
 | B. Montanari, D. Quigley, M. Glover,            |
 | L. Bernasconi, A. Perlov, M. Plummer            |
 |                                                 |
 | Copyright (c) 2000 - 2009                       |
 |                                                 |
 |     Distributed under the terms of an           |
 |     Agreement between the United Kingdom        |
 |     Car-Parrinello (UKCP) Consortium,           |
 |     Daresbury Laboratory and Accelrys, Inc.     |
 |                                                 |
 | Please cite                                     |
 |                                                 |
 |     "First principles methods using CASTEP"     |
 |                                                 |
 |         Zeitschrift fuer Kristallographie       |
 |           220(5-6) pp. 567-570 (2005)           |
 |                                                 |
 | S. J. Clark, M. D. Segall, C. J. Pickard,       |
 | P. J. Hasnip, M. J. Probert, K. Refson,         |
 | M. C. Payne                                     |
 |                                                 |
 |       in all publications arising from          |
 |              your use of CASTEP                 |
 |                                                 |
 +-------------------------------------------------+
 
 
 Pseudo atomic calculation performed for O 2s2 2p4
 
 Converged in 36 iterations to a total energy of -429.6485 eV
 
 
 Pseudo atomic calculation performed for Na 2s2 2p6 3s1
 
 Converged in 33 iterations to a total energy of -1302.8467 eV
 
 
 Pseudo atomic calculation performed for Al 3s2 3p1
 
 Converged in 20 iterations to a total energy of -52.7392 eV
 
 
 Pseudo atomic calculation performed for Si 3s2 3p2
 
 Converged in 21 iterations to a total energy of -101.9044 eV
 
Calculation parallelised over   36 nodes.
K-points are distributed over    6 groups, each containing    6 nodes.

 ************************************ Title ************************************
 

 ***************************** General Parameters ******************************
  
 output verbosity                               : normal  (1)
 write checkpoint data to                       : jadeite_4_30_GPa_cij__2__3.check
 type of calculation                            : geometry optimization
 stress calculation                             : on
 density difference calculation                 : off
 electron localisation func (ELF) calculation   : off
 Hirshfeld analysis                             : off
 unlimited duration calculation
 timing information                             : on
 memory usage estimate                          : on
 write final potential to formatted file        : off
 write final density to formatted file          : off
  
 output         length unit                     : A
 output           mass unit                     : amu
 output           time unit                     : ps
 output         charge unit                     : e
 output         energy unit                     : eV
 output          force unit                     : eV/A
 output       velocity unit                     : A/ps
 output       pressure unit                     : GPa
 output     inv_length unit                     : 1/A
 output      frequency unit                     : cm-1
 output force constant unit                     : eV/A**2
 output         volume unit                     : A**3
 output   IR intensity unit                     : (D/A)**2/amu
 output         dipole unit                     : D
 output         efield unit                     : eV/A/e
  
 wavefunctions paging                           : none
 data distribution                              : optimal for this architecture
 optimization strategy                          : maximize speed(+++)

 *********************** Exchange-Correlation Parameters ***********************
  
 using functional                               : Perdew Burke Ernzerhof
 Divergence correction                          : off
 DFT+D: Semi-empirical dispersion correction    : off

 ************************* Pseudopotential Parameters **************************
  
 pseudopotential representation                 : reciprocal space
 <beta|phi> representation                      : reciprocal space

 **************************** Basis Set Parameters *****************************
  
 plane wave basis set cut-off                   :   700.0000   eV
 finite basis set correction                    : none

 **************************** Electronic Parameters ****************************
  
 number of  electrons                           :  224.0    
 net charge of system                           :  0.000    
 net spin   of system                           :  0.000    
 number of  up  spins                           :  112.0    
 number of down spins                           :  112.0    
 treating system as non-spin-polarized
 number of bands                                :        112

 ********************* Electronic Minimization Parameters **********************
  
 Method: Treating system as non-metallic,
         and number of  SD  steps               :          1
         and number of  CG  steps               :          4
  
 total energy / atom convergence tol.           : 0.1000E-07   eV
 max force / atom convergence tol.              : ignored
 convergence tolerance window                   :          3   cycles
 max. number of SCF cycles                      :        100

 *********************** Population Analysis Parameters ************************
  
 Population analysis with cutoff                :  3.000       A

 ********************** Geometry Optimization Parameters ***********************
  
 optimization method                            : BFGS
 variable cell method                           : fixed basis quality
 max. number of steps                           :        300
 estimated bulk modulus                         :  500.0       GPa
 estimated <frequency>                          :  1668.       cm-1
 line minimiser tolerance                       :     0.4000
 total energy convergence tolerance             : 0.2000E-06   eV/atom
        max ionic |force| tolerance             : 0.1000E-02   eV/A
 max ionic |displacement| tolerance             : 0.1000E-02   A
   max |stress component| tolerance             : 0.1000E-02   GPa
 convergence tolerance window                   :          2   steps
 backup results every                           :          1   steps

 *******************************************************************************
  
 
                           -------------------------------
                                      Unit Cell
                           -------------------------------
        Real Lattice(A)                      Reciprocal Lattice(1/A)
   8.9813393   0.0666667  -2.8290832        0.6995822   0.0000000   0.0000000
   0.0000000   8.5603493   0.0000000       -0.0054482   0.7339870   0.0000000
   0.0000000   0.0000000   5.2865846        0.3743771   0.0000000   1.1885150
 
                       Lattice parameters(A)       Cell Angles
                    a =    9.416614          alpha =   90.000000
                    b =    8.560349          beta  =  107.483751
                    c =    5.286585          gamma =   89.594360
 
                       Current cell volume =  406.450603       A**3
 
                           -------------------------------
                                     Cell Contents
                           -------------------------------
                         Total number of ions in cell =   40
                      Total number of species in cell =    4
                        Max number of any one species =   24
 
            xxxxxxxxxxxxxxxxxxxxxxxxxxxxxxxxxxxxxxxxxxxxxxxxxxxxxxxxxxxx
            x  Element    Atom        Fractional coordinates of atoms  x
            x            Number           u          v          w      x
            x----------------------------------------------------------x
            x  O            1         0.109277   0.076953   0.129205   x
            x  O            2         0.609279   0.576951   0.129208   x
            x  O            3         0.890723   0.076953   0.370795   x
            x  O            4         0.390721   0.576951   0.370792   x
            x  O            5         0.890723   0.923047   0.870795   x
            x  O            6         0.390721   0.423048   0.870792   x
            x  O            7         0.109277   0.923047   0.629205   x
            x  O            8         0.609279   0.423048   0.629208   x
            x  O            9         0.361047   0.263746   0.295383   x
            x  O           10         0.861046   0.763747   0.295382   x
            x  O           11         0.638953   0.263746   0.204617   x
            x  O           12         0.138954   0.763747   0.204618   x
            x  O           13         0.638953   0.736253   0.704617   x
            x  O           14         0.138954   0.236253   0.704618   x
            x  O           15         0.361047   0.736253   0.795383   x
            x  O           16         0.861046   0.236253   0.795382   x
            x  O           17         0.354029   0.008469   1.005059   x
            x  O           18         0.854032   0.508466   1.005069   x
            x  O           19         0.645971   0.008469   0.494941   x
            x  O           20         0.145968   0.508466   0.494931   x
            x  O           21         0.645971   0.991530  -0.005059   x
            x  O           22         0.145968   0.491534  -0.005069   x
            x  O           23         0.354029   0.991530   0.505059   x
            x  O           24         0.854032   0.491534   0.505069   x
            x  Na           1         0.000000   0.301230   0.250000   x
            x  Na           2         0.500000   0.801234   0.250000   x
            x  Na           3         0.000000   0.698770   0.750000   x
            x  Na           4         0.500000   0.198765   0.750000   x
            x  Al           1         0.000000   0.906276   0.250000   x
            x  Al           2         0.500000   0.406276   0.250000   x
            x  Al           3         0.000000   0.093723   0.750000   x
            x  Al           4         0.500000   0.593723   0.750000   x
            x  Si           1         0.290869   0.093824   0.228100   x
            x  Si           2         0.790871   0.593823   0.228106   x
            x  Si           3         0.709131   0.093824   0.271900   x
            x  Si           4         0.209129   0.593823   0.271894   x
            x  Si           5         0.709131   0.906175   0.771900   x
            x  Si           6         0.209129   0.406176   0.771894   x
            x  Si           7         0.290869   0.906175   0.728100   x
            x  Si           8         0.790871   0.406176   0.728106   x
            xxxxxxxxxxxxxxxxxxxxxxxxxxxxxxxxxxxxxxxxxxxxxxxxxxxxxxxxxxxx
 
 
                         No user defined ionic velocities
 
                           -------------------------------
                                   Details of Species
                           -------------------------------
 
                               Mass of species in AMU
                                    O   15.9994000
                                    Na   22.9897700
                                    Al   26.9815400
                                    Si   28.0855000
 
                          Electric Quadrupole Moment (Barn)
                                    O   -0.0255800 Isotope 17
                                    Na    0.1040000 Isotope 23
                                    Al    0.1466000 Isotope 27
                                    Si    1.0000000 No Isotope Defined
 
                          Files used for pseudopotentials:
                                    O O_00PBE.usp
                                    Na Na_00PBE.usp
                                    Al Al_00PBE.usp
                                    Si Si_00PBE.usp
 
                           -------------------------------
                              k-Points For BZ Sampling
                           -------------------------------
                       MP grid size for SCF calculation is  2  2  3
                         Number of kpoints used = 6
 
             +++++++++++++++++++++++++++++++++++++++++++++++++++++++
             +  Number       Fractional coordinates        Weight  +
             +-----------------------------------------------------+
             +     1  -0.250000   0.250000   0.333333   0.1666667  +
             +     2  -0.250000   0.250000   0.000000   0.1666667  +
             +     3   0.250000  -0.250000   0.333333   0.1666667  +
             +     4  -0.250000  -0.250000   0.333333   0.1666667  +
             +     5   0.250000   0.250000   0.000000   0.1666667  +
             +     6   0.250000   0.250000   0.333333   0.1666667  +
             +++++++++++++++++++++++++++++++++++++++++++++++++++++++
 
                           -------------------------------
                               Symmetry and Constraints
                           -------------------------------
 
                      Number of symmetry operations   = 2
                      Number of ionic constraints     = 3
                      Maximum deviation from symmetry = 0.148795E-14     ANG
               Point group of crystal =     2: Ci, -1, -1
           Set iprint > 1 for details on symmetry rotations/translations
 
                          Centre of mass is constrained
             Set iprint > 1 for details of linear ionic constraints
 
                         Number of cell constraints= 6
                         Cell constraints are:  0 0 0 0 0 0
 
                         External pressure/stress (GPa)
                          4.30000   0.00000   0.00000
                                    4.30000   0.00000
                                              4.30000
  
+---------------- MEMORY AND SCRATCH DISK ESTIMATES PER NODE -----------------+
|                                                     Memory          Disk    |
| Model and support data                               91.4 MB         0.0 MB |
| Electronic energy minimisation requirements          32.8 MB         0.0 MB |
|                                               ----------------------------- |
| Approx. total storage required per node             124.2 MB         0.0 MB |
|                                                                             |
| Requirements will fluctuate during execution and may exceed these estimates |
+-----------------------------------------------------------------------------+
------------------------------------------------------------------------ <-- SCF
SCF loop      Energy                           Energy gain       Timer   <-- SCF
                                               per atom          (sec)   <-- SCF
------------------------------------------------------------------------ <-- SCF
Initial  -1.57375730E+003                                          6.46  <-- SCF
      1  -1.65660015E+004                    3.74806105E+002      25.56  <-- SCF
      2  -1.68154562E+004                    6.23636773E+000      43.94  <-- SCF
      3  -1.68409269E+004                    6.36768780E-001      62.33  <-- SCF
      4  -1.68460498E+004                    1.28070416E-001      80.47  <-- SCF
      5  -1.68461594E+004                    2.74104719E-003      98.55  <-- SCF
      6  -1.68461610E+004                    4.11199930E-005     116.73  <-- SCF
      7  -1.68461611E+004                    1.08169655E-006     134.87  <-- SCF
      8  -1.68461611E+004                    3.47427950E-008     153.03  <-- SCF
      9  -1.68461611E+004                    1.14377248E-009     171.22  <-- SCF
     10  -1.68461611E+004                    3.75869516E-011     190.75  <-- SCF
------------------------------------------------------------------------ <-- SCF
 
Final energy =  -16846.16109103     eV
(energy not corrected for finite basis set)
 
 
Writing model to jadeite_4_30_GPa_cij__2__3.check
 
+---------------- MEMORY AND SCRATCH DISK ESTIMATES PER NODE -----------------+
|                                                     Memory          Disk    |
| Model and support data                               84.6 MB         0.0 MB |
| Geometry minimisation requirements                   38.2 MB         0.0 MB |
|                                               ----------------------------- |
| Approx. total storage required per node             122.8 MB         0.0 MB |
|                                                                             |
| Requirements will fluctuate during execution and may exceed these estimates |
+-----------------------------------------------------------------------------+
 
 
 *********************************** Forces ***********************************
 *                                                                            *
 *                        Cartesian components (eV/A)                         *
 * -------------------------------------------------------------------------- *
 *                   x                    y                    z              *
 *                                                                            *
 * O         1     -0.04978             -0.00347             -0.06145         *
 * O         2     -0.04993             -0.00342             -0.06147         *
 * O         3      0.03398             -0.00545              0.03390         *
 * O         4      0.03413             -0.00541              0.03393         *
 * O         5      0.04978              0.00347              0.06145         *
 * O         6      0.04993              0.00342              0.06147         *
 * O         7     -0.03398              0.00545             -0.03390         *
 * O         8     -0.03413              0.00541             -0.03393         *
 * O         9      0.00634             -0.07887             -0.05840         *
 * O        10      0.00647             -0.07880             -0.05839         *
 * O        11     -0.06953              0.09753              0.03261         *
 * O        12     -0.06966              0.09761              0.03260         *
 * O        13     -0.00634              0.07887              0.05840         *
 * O        14     -0.00647              0.07880              0.05839         *
 * O        15      0.06953             -0.09753             -0.03261         *
 * O        16      0.06966             -0.09761             -0.03260         *
 * O        17     -0.17576             -0.09370             -0.06417         *
 * O        18     -0.17582             -0.09364             -0.06424         *
 * O        19      0.17103              0.02866             -0.08692         *
 * O        20      0.17110              0.02873             -0.08686         *
 * O        21      0.17576              0.09370              0.06417         *
 * O        22      0.17582              0.09364              0.06424         *
 * O        23     -0.17103             -0.02866              0.08692         *
 * O        24     -0.17110             -0.02873              0.08686         *
 * Na        1      0.01215             -0.00159              0.01729         *
 * Na        2      0.01216             -0.00170              0.01728         *
 * Na        3     -0.01215              0.00159             -0.01729         *
 * Na        4     -0.01216              0.00170             -0.01728         *
 * Al        1     -0.04910              0.01870              0.00132         *
 * Al        2     -0.04910              0.01881              0.00132         *
 * Al        3      0.04910             -0.01870             -0.00132         *
 * Al        4      0.04910             -0.01881             -0.00132         *
 * Si        1      0.17107             -0.12787              0.02121         *
 * Si        2      0.17087             -0.12785              0.02120         *
 * Si        3     -0.18114             -0.44019             -0.00017         *
 * Si        4     -0.18094             -0.44016             -0.00017         *
 * Si        5     -0.17107              0.12787             -0.02121         *
 * Si        6     -0.17087              0.12785             -0.02120         *
 * Si        7      0.18114              0.44019              0.00017         *
 * Si        8      0.18094              0.44016              0.00017         *
 *                                                                            *
 ******************************************************************************
 BFGS: finished iteration     0 with enthalpy= -1.68352526E+004 eV
  
 +-----------+-----------------+-----------------+------------+-----+ <-- BFGS
 | Parameter |      value      |    tolerance    |    units   | OK? | <-- BFGS
 +-----------+-----------------+-----------------+------------+-----+ <-- BFGS
 |  dE/ion   |   0.000000E+000 |   2.000000E-007 |         eV | No  | <-- BFGS
 |  |F|max   |   4.759970E-001 |   1.000000E-003 |       eV/A | No  | <-- BFGS
 |  |dR|max  |   0.000000E+000 |   1.000000E-003 |          A | No  | <-- BFGS
 +-----------+-----------------+-----------------+------------+-----+ <-- BFGS
  

================================================================================
 Starting BFGS iteration          1 ...
================================================================================
 
Writing model to jadeite_4_30_GPa_cij__2__3.check
  
 +------------+-------------+-------------+-----------------+ <-- min BFGS
 |    Step    |   lambda    |   F.delta   |    enthalpy     | <-- min BFGS
 +------------+-------------+-------------+-----------------+ <-- min BFGS
 |  previous  |    0.000000 |    0.000278 |   -16835.252570 | <-- min BFGS
 +------------+-------------+-------------+-----------------+ <-- min BFGS
  

--------------------------------------------------------------------------------
 BFGS: starting iteration         1 with trial guess (lambda=  1.000000)
--------------------------------------------------------------------------------
 
                           -------------------------------
                                     Cell Contents
                           -------------------------------
 
            xxxxxxxxxxxxxxxxxxxxxxxxxxxxxxxxxxxxxxxxxxxxxxxxxxxxxxxxxxxx
            x  Element    Atom        Fractional coordinates of atoms  x
            x            Number           u          v          w      x
            x----------------------------------------------------------x
            x  O            1         0.109250   0.076951   0.129134   x
            x  O            2         0.609252   0.576950   0.129137   x
            x  O            3         0.890741   0.076950   0.370836   x
            x  O            4         0.390739   0.576948   0.370833   x
            x  O            5         0.890750   0.923049   0.870866   x
            x  O            6         0.390748   0.423050   0.870863   x
            x  O            7         0.109259   0.923050   0.629164   x
            x  O            8         0.609261   0.423052   0.629167   x
            x  O            9         0.361050   0.263702   0.295331   x
            x  O           10         0.861049   0.763702   0.295330   x
            x  O           11         0.638916   0.263802   0.204627   x
            x  O           12         0.138916   0.763802   0.204628   x
            x  O           13         0.638950   0.736298   0.704669   x
            x  O           14         0.138951   0.236298   0.704670   x
            x  O           15         0.361084   0.736198   0.795373   x
            x  O           16         0.861084   0.236198   0.795372   x
            x  O           17         0.353934   0.008417   1.004950   x
            x  O           18         0.853937   0.508414   1.004960   x
            x  O           19         0.646063   0.008485   0.494911   x
            x  O           20         0.146060   0.508482   0.494901   x
            x  O           21         0.646066   0.991583  -0.004950   x
            x  O           22         0.146063   0.491586  -0.004960   x
            x  O           23         0.353937   0.991515   0.505089   x
            x  O           24         0.853940   0.491518   0.505099   x
            x  Na           1         0.000007   0.301229   0.250019   x
            x  Na           2         0.500007   0.801233   0.250019   x
            x  Na           3        -0.000007   0.698771   0.749981   x
            x  Na           4         0.499993   0.198767   0.749981   x
            x  Al           1        -0.000026   0.906287   0.249987   x
            x  Al           2         0.499974   0.406287   0.249987   x
            x  Al           3         0.000026   0.093713   0.750013   x
            x  Al           4         0.500026   0.593713   0.750013   x
            x  Si           1         0.290961   0.093752   0.228169   x
            x  Si           2         0.790963   0.593751   0.228175   x
            x  Si           3         0.709033   0.093577   0.271848   x
            x  Si           4         0.209032   0.593576   0.271842   x
            x  Si           5         0.709039   0.906248   0.771831   x
            x  Si           6         0.209037   0.406249   0.771825   x
            x  Si           7         0.290967   0.906423   0.728152   x
            x  Si           8         0.790968   0.406424   0.728158   x
            xxxxxxxxxxxxxxxxxxxxxxxxxxxxxxxxxxxxxxxxxxxxxxxxxxxxxxxxxxxx
 
 
------------------------------------------------------------------------ <-- SCF
SCF loop      Energy                           Energy gain       Timer   <-- SCF
                                               per atom          (sec)   <-- SCF
------------------------------------------------------------------------ <-- SCF
Initial  -1.68461560E+004                                        201.37  <-- SCF
      1  -1.68461676E+004                    2.90045662E-004     219.73  <-- SCF
      2  -1.68461676E+004                    1.54317406E-007     237.94  <-- SCF
      3  -1.68461676E+004                    2.07346949E-009     257.64  <-- SCF
      4  -1.68461676E+004                    4.27686919E-011     275.84  <-- SCF
------------------------------------------------------------------------ <-- SCF
 
Final energy =  -16846.16759858     eV
(energy not corrected for finite basis set)
 
 
 *********************************** Forces ***********************************
 *                                                                            *
 *                        Cartesian components (eV/A)                         *
 * -------------------------------------------------------------------------- *
 *                   x                    y                    z              *
 *                                                                            *
 * O         1     -0.01480              0.00018             -0.05754         *
 * O         2     -0.01495              0.00023             -0.05756         *
 * O         3      0.01024             -0.01179              0.02980         *
 * O         4      0.01039             -0.01175              0.02982         *
 * O         5      0.01480             -0.00018              0.05754         *
 * O         6      0.01495             -0.00023              0.05756         *
 * O         7     -0.01024              0.01179             -0.02980         *
 * O         8     -0.01039              0.01175             -0.02982         *
 * O         9      0.00539             -0.08472             -0.05358         *
 * O        10      0.00550             -0.08468             -0.05356         *
 * O        11     -0.04558              0.02872              0.03455         *
 * O        12     -0.04568              0.02875              0.03453         *
 * O        13     -0.00539              0.08472              0.05358         *
 * O        14     -0.00550              0.08468              0.05356         *
 * O        15      0.04558             -0.02872             -0.03455         *
 * O        16      0.04568             -0.02875             -0.03453         *
 * O        17     -0.14542             -0.07046             -0.03508         *
 * O        18     -0.14549             -0.07040             -0.03515         *
 * O        19      0.13817              0.00791             -0.05656         *
 * O        20      0.13824              0.00798             -0.05650         *
 * O        21      0.14542              0.07046              0.03508         *
 * O        22      0.14549              0.07040              0.03515         *
 * O        23     -0.13817             -0.00791              0.05656         *
 * O        24     -0.13824             -0.00798              0.05650         *
 * Na        1      0.00826             -0.01175              0.01572         *
 * Na        2      0.00826             -0.01186              0.01572         *
 * Na        3     -0.00826              0.01175             -0.01572         *
 * Na        4     -0.00826              0.01186             -0.01572         *
 * Al        1     -0.04112              0.02064              0.00005         *
 * Al        2     -0.04112              0.02073              0.00005         *
 * Al        3      0.04112             -0.02064             -0.00005         *
 * Al        4      0.04112             -0.02073             -0.00005         *
 * Si        1      0.11569             -0.10758              0.01679         *
 * Si        2      0.11553             -0.10753              0.01678         *
 * Si        3     -0.13808             -0.30532             -0.00727         *
 * Si        4     -0.13793             -0.30528             -0.00727         *
 * Si        5     -0.11569              0.10758             -0.01679         *
 * Si        6     -0.11553              0.10753             -0.01678         *
 * Si        7      0.13808              0.30532              0.00727         *
 * Si        8      0.13793              0.30528              0.00727         *
 *                                                                            *
 ******************************************************************************
  
 +------------+-------------+-------------+-----------------+ <-- min BFGS
 |    Step    |   lambda    |   F.delta   |    enthalpy     | <-- min BFGS
 +------------+-------------+-------------+-----------------+ <-- min BFGS
 |  previous  |    0.000000 |    0.000278 |   -16835.252570 | <-- min BFGS
 | trial step |    1.000000 |    0.000200 |   -16835.259078 | <-- min BFGS
 +------------+-------------+-------------+-----------------+ <-- min BFGS
  

--------------------------------------------------------------------------------
 BFGS: improving iteration         1 with line minimization (lambda=  3.585849)
--------------------------------------------------------------------------------
 
                           -------------------------------
                                     Cell Contents
                           -------------------------------
 
            xxxxxxxxxxxxxxxxxxxxxxxxxxxxxxxxxxxxxxxxxxxxxxxxxxxxxxxxxxxx
            x  Element    Atom        Fractional coordinates of atoms  x
            x            Number           u          v          w      x
            x----------------------------------------------------------x
            x  O            1         0.109181   0.076947   0.128952   x
            x  O            2         0.609183   0.576945   0.128955   x
            x  O            3         0.890789   0.076941   0.370941   x
            x  O            4         0.390787   0.576940   0.370939   x
            x  O            5         0.890819   0.923053   0.871048   x
            x  O            6         0.390817   0.423055   0.871045   x
            x  O            7         0.109211   0.923059   0.629059   x
            x  O            8         0.609213   0.423060   0.629061   x
            x  O            9         0.361059   0.263587   0.295198   x
            x  O           10         0.861058   0.763587   0.295197   x
            x  O           11         0.638819   0.263945   0.204652   x
            x  O           12         0.138819   0.763946   0.204653   x
            x  O           13         0.638941   0.736413   0.704802   x
            x  O           14         0.138942   0.236413   0.704803   x
            x  O           15         0.361181   0.736055   0.795348   x
            x  O           16         0.861181   0.236054   0.795347   x
            x  O           17         0.353690   0.008282   1.004667   x
            x  O           18         0.853693   0.508279   1.004677   x
            x  O           19         0.646301   0.008525   0.494833   x
            x  O           20         0.146298   0.508522   0.494823   x
            x  O           21         0.646310   0.991718  -0.004667   x
            x  O           22         0.146307   0.491721  -0.004677   x
            x  O           23         0.353699   0.991475   0.505167   x
            x  O           24         0.853702   0.491478   0.505177   x
            x  Na           1         0.000023   0.301227   0.250069   x
            x  Na           2         0.500023   0.801231   0.250069   x
            x  Na           3        -0.000023   0.698773   0.749931   x
            x  Na           4         0.499977   0.198769   0.749931   x
            x  Al           1        -0.000095   0.906315   0.249954   x
            x  Al           2         0.499905   0.406315   0.249954   x
            x  Al           3         0.000095   0.093685   0.750046   x
            x  Al           4         0.500095   0.593685   0.750046   x
            x  Si           1         0.291199   0.093563   0.228346   x
            x  Si           2         0.791201   0.593562   0.228352   x
            x  Si           3         0.708781   0.092935   0.271712   x
            x  Si           4         0.208780   0.592935   0.271706   x
            x  Si           5         0.708801   0.906437   0.771654   x
            x  Si           6         0.208799   0.406438   0.771648   x
            x  Si           7         0.291219   0.907065   0.728288   x
            x  Si           8         0.791220   0.407065   0.728294   x
            xxxxxxxxxxxxxxxxxxxxxxxxxxxxxxxxxxxxxxxxxxxxxxxxxxxxxxxxxxxx
 
 
------------------------------------------------------------------------ <-- SCF
SCF loop      Energy                           Energy gain       Timer   <-- SCF
                                               per atom          (sec)   <-- SCF
------------------------------------------------------------------------ <-- SCF
Initial  -1.68461080E+004                                        283.97  <-- SCF
      1  -1.68461746E+004                    1.66456875E-003     302.17  <-- SCF
      2  -1.68461747E+004                    9.71937162E-007     320.32  <-- SCF
      3  -1.68461747E+004                    1.27592233E-008     338.83  <-- SCF
      4  -1.68461747E+004                    2.55220042E-010     357.01  <-- SCF
      5  -1.68461747E+004                    5.41375847E-012     378.95  <-- SCF
------------------------------------------------------------------------ <-- SCF
 
Final energy =  -16846.17466876     eV
(energy not corrected for finite basis set)
 
 
 *********************************** Forces ***********************************
 *                                                                            *
 *                        Cartesian components (eV/A)                         *
 * -------------------------------------------------------------------------- *
 *                   x                    y                    z              *
 *                                                                            *
 * O         1      0.07499              0.00950             -0.04734         *
 * O         2      0.07484              0.00954             -0.04736         *
 * O         3     -0.05091             -0.02833              0.01916         *
 * O         4     -0.05076             -0.02829              0.01918         *
 * O         5     -0.07499             -0.00950              0.04734         *
 * O         6     -0.07484             -0.00954              0.04736         *
 * O         7      0.05091              0.02833             -0.01916         *
 * O         8      0.05076              0.02829             -0.01918         *
 * O         9      0.00298             -0.09995             -0.04108         *
 * O        10      0.00302             -0.10002             -0.04106         *
 * O        11      0.01428             -0.14577              0.03902         *
 * O        12      0.01425             -0.14584              0.03900         *
 * O        13     -0.00298              0.09995              0.04108         *
 * O        14     -0.00302              0.10002              0.04106         *
 * O        15     -0.01428              0.14577             -0.03902         *
 * O        16     -0.01425              0.14584             -0.03900         *
 * O        17     -0.06638             -0.00910              0.04265         *
 * O        18     -0.06649             -0.00905              0.04259         *
 * O        19      0.05278             -0.04640              0.02389         *
 * O        20      0.05288             -0.04634              0.02395         *
 * O        21      0.06638              0.00910             -0.04265         *
 * O        22      0.06649              0.00905             -0.04259         *
 * O        23     -0.05278              0.04640             -0.02389         *
 * O        24     -0.05288              0.04634             -0.02395         *
 * Na        1     -0.00183             -0.03808              0.01167         *
 * Na        2     -0.00182             -0.03817              0.01167         *
 * Na        3      0.00183              0.03808             -0.01167         *
 * Na        4      0.00182              0.03817             -0.01167         *
 * Al        1     -0.02046              0.02574             -0.00316         *
 * Al        2     -0.02046              0.02578             -0.00316         *
 * Al        3      0.02046             -0.02574              0.00316         *
 * Al        4      0.02046             -0.02578              0.00316         *
 * Si        1     -0.02668             -0.05519              0.00515         *
 * Si        2     -0.02673             -0.05509              0.00513         *
 * Si        3     -0.02458              0.04030             -0.02488         *
 * Si        4     -0.02454              0.04040             -0.02488         *
 * Si        5      0.02668              0.05519             -0.00515         *
 * Si        6      0.02673              0.05509             -0.00513         *
 * Si        7      0.02458             -0.04030              0.02488         *
 * Si        8      0.02454             -0.04040              0.02488         *
 *                                                                            *
 ******************************************************************************
  
 +------------+-------------+-------------+-----------------+ <-- min BFGS
 |    Step    |   lambda    |   F.delta   |    enthalpy     | <-- min BFGS
 +------------+-------------+-------------+-----------------+ <-- min BFGS
 |  previous  |    0.000000 |    0.000278 |   -16835.252570 | <-- min BFGS
 | trial step |    1.000000 |    0.000200 |   -16835.259078 | <-- min BFGS
 |  line step |    3.585849 |    0.000001 |   -16835.266148 | <-- min BFGS
 +------------+-------------+-------------+-----------------+ <-- min BFGS
  
 BFGS: finished iteration     1 with enthalpy= -1.68352661E+004 eV
  
 +-----------+-----------------+-----------------+------------+-----+ <-- BFGS
 | Parameter |      value      |    tolerance    |    units   | OK? | <-- BFGS
 +-----------+-----------------+-----------------+------------+-----+ <-- BFGS
 |  dE/ion   |   3.394431E-004 |   2.000000E-007 |         eV | No  | <-- BFGS
 |  |F|max   |   1.516367E-001 |   1.000000E-003 |       eV/A | No  | <-- BFGS
 |  |dR|max  |   8.254833E-003 |   1.000000E-003 |          A | No  | <-- BFGS
 +-----------+-----------------+-----------------+------------+-----+ <-- BFGS
  

================================================================================
 Starting BFGS iteration          2 ...
================================================================================
 
Writing model to jadeite_4_30_GPa_cij__2__3.check
  
 +------------+-------------+-------------+-----------------+ <-- min BFGS
 |    Step    |   lambda    |   F.delta   |    enthalpy     | <-- min BFGS
 +------------+-------------+-------------+-----------------+ <-- min BFGS
 |  previous  |    0.000000 |    0.000048 |   -16835.266148 | <-- min BFGS
 +------------+-------------+-------------+-----------------+ <-- min BFGS
  

--------------------------------------------------------------------------------
 BFGS: starting iteration         2 with trial guess (lambda=  1.000000)
--------------------------------------------------------------------------------
 
                           -------------------------------
                                     Cell Contents
                           -------------------------------
 
            xxxxxxxxxxxxxxxxxxxxxxxxxxxxxxxxxxxxxxxxxxxxxxxxxxxxxxxxxxxx
            x  Element    Atom        Fractional coordinates of atoms  x
            x            Number           u          v          w      x
            x----------------------------------------------------------x
            x  O            1         0.109217   0.076951   0.128918   x
            x  O            2         0.609218   0.576950   0.128920   x
            x  O            3         0.890764   0.076925   0.370952   x
            x  O            4         0.390763   0.576924   0.370949   x
            x  O            5         0.890783   0.923049   0.871082   x
            x  O            6         0.390782   0.423050   0.871080   x
            x  O            7         0.109236   0.923075   0.629048   x
            x  O            8         0.609237   0.423076   0.629051   x
            x  O            9         0.361061   0.263522   0.295152   x
            x  O           10         0.861061   0.763523   0.295151   x
            x  O           11         0.638820   0.263872   0.204694   x
            x  O           12         0.138820   0.763873   0.204695   x
            x  O           13         0.638939   0.736478   0.704848   x
            x  O           14         0.138939   0.236477   0.704849   x
            x  O           15         0.361180   0.736128   0.795306   x
            x  O           16         0.861180   0.236127   0.795305   x
            x  O           17         0.353637   0.008268   1.004667   x
            x  O           18         0.853640   0.508265   1.004677   x
            x  O           19         0.646346   0.008501   0.494864   x
            x  O           20         0.146344   0.508498   0.494855   x
            x  O           21         0.646363   0.991732  -0.004667   x
            x  O           22         0.146360   0.491735  -0.004677   x
            x  O           23         0.353654   0.991499   0.505136   x
            x  O           24         0.853656   0.491502   0.505145   x
            x  Na           1         0.000024   0.301205   0.250083   x
            x  Na           2         0.500024   0.801209   0.250083   x
            x  Na           3        -0.000024   0.698795   0.749917   x
            x  Na           4         0.499976   0.198791   0.749917   x
            x  Al           1        -0.000111   0.906332   0.249942   x
            x  Al           2         0.499889   0.406332   0.249942   x
            x  Al           3         0.000111   0.093668   0.750058   x
            x  Al           4         0.500111   0.593668   0.750058   x
            x  Si           1         0.291202   0.093519   0.228356   x
            x  Si           2         0.791203   0.593518   0.228361   x
            x  Si           3         0.708750   0.092914   0.271673   x
            x  Si           4         0.208749   0.592913   0.271667   x
            x  Si           5         0.708798   0.906481   0.771644   x
            x  Si           6         0.208797   0.406482   0.771639   x
            x  Si           7         0.291250   0.907086   0.728327   x
            x  Si           8         0.791251   0.407087   0.728333   x
            xxxxxxxxxxxxxxxxxxxxxxxxxxxxxxxxxxxxxxxxxxxxxxxxxxxxxxxxxxxx
 
 
------------------------------------------------------------------------ <-- SCF
SCF loop      Energy                           Energy gain       Timer   <-- SCF
                                               per atom          (sec)   <-- SCF
------------------------------------------------------------------------ <-- SCF
Initial  -1.68461717E+004                                        389.17  <-- SCF
      1  -1.68461759E+004                    1.05874584E-004     407.45  <-- SCF
      2  -1.68461759E+004                    4.08676893E-008     425.67  <-- SCF
      3  -1.68461759E+004                    3.61407047E-010     443.84  <-- SCF
      4  -1.68461759E+004                    8.12063770E-012     463.48  <-- SCF
------------------------------------------------------------------------ <-- SCF
 
Final energy =  -16846.17589306     eV
(energy not corrected for finite basis set)
 
 
 *********************************** Forces ***********************************
 *                                                                            *
 *                        Cartesian components (eV/A)                         *
 * -------------------------------------------------------------------------- *
 *                   x                    y                    z              *
 *                                                                            *
 * O         1      0.06014              0.00479             -0.04462         *
 * O         2      0.06001              0.00484             -0.04463         *
 * O         3     -0.04639             -0.02920              0.01843         *
 * O         4     -0.04627             -0.02916              0.01845         *
 * O         5     -0.06014             -0.00479              0.04462         *
 * O         6     -0.06001             -0.00484              0.04463         *
 * O         7      0.04639              0.02920             -0.01843         *
 * O         8      0.04627              0.02916             -0.01845         *
 * O         9      0.00834             -0.08953             -0.03951         *
 * O        10      0.00837             -0.08958             -0.03948         *
 * O        11      0.00372             -0.12522              0.03733         *
 * O        12      0.00369             -0.12528              0.03730         *
 * O        13     -0.00834              0.08953              0.03951         *
 * O        14     -0.00837              0.08958              0.03948         *
 * O        15     -0.00372              0.12522             -0.03733         *
 * O        16     -0.00369              0.12528             -0.03730         *
 * O        17     -0.05570             -0.01011              0.03964         *
 * O        18     -0.05581             -0.01005              0.03958         *
 * O        19      0.04492             -0.04124              0.01720         *
 * O        20      0.04502             -0.04119              0.01725         *
 * O        21      0.05570              0.01011             -0.03964         *
 * O        22      0.05581              0.01005             -0.03958         *
 * O        23     -0.04492              0.04124             -0.01720         *
 * O        24     -0.04502              0.04119             -0.01725         *
 * Na        1     -0.00154             -0.03843              0.01198         *
 * Na        2     -0.00154             -0.03853              0.01198         *
 * Na        3      0.00154              0.03843             -0.01198         *
 * Na        4      0.00154              0.03853             -0.01198         *
 * Al        1     -0.01934              0.01972             -0.00179         *
 * Al        2     -0.01934              0.01975             -0.00179         *
 * Al        3      0.01934             -0.01972              0.00179         *
 * Al        4      0.01934             -0.01975              0.00179         *
 * Si        1     -0.02714             -0.04420              0.00349         *
 * Si        2     -0.02720             -0.04412              0.00348         *
 * Si        3     -0.01169              0.03468             -0.01845         *
 * Si        4     -0.01163              0.03476             -0.01844         *
 * Si        5      0.02714              0.04420             -0.00349         *
 * Si        6      0.02720              0.04412             -0.00348         *
 * Si        7      0.01169             -0.03468              0.01845         *
 * Si        8      0.01163             -0.03476              0.01844         *
 *                                                                            *
 ******************************************************************************
  
 +------------+-------------+-------------+-----------------+ <-- min BFGS
 |    Step    |   lambda    |   F.delta   |    enthalpy     | <-- min BFGS
 +------------+-------------+-------------+-----------------+ <-- min BFGS
 |  previous  |    0.000000 |    0.000048 |   -16835.266148 | <-- min BFGS
 | trial step |    1.000000 |    0.000042 |   -16835.267372 | <-- min BFGS
 +------------+-------------+-------------+-----------------+ <-- min BFGS
  

--------------------------------------------------------------------------------
 BFGS: improving iteration         2 with line minimization (lambda=  7.405008)
--------------------------------------------------------------------------------
 
                           -------------------------------
                                     Cell Contents
                           -------------------------------
 
            xxxxxxxxxxxxxxxxxxxxxxxxxxxxxxxxxxxxxxxxxxxxxxxxxxxxxxxxxxxx
            x  Element    Atom        Fractional coordinates of atoms  x
            x            Number           u          v          w      x
            x----------------------------------------------------------x
            x  O            1         0.109445   0.076982   0.128697   x
            x  O            2         0.609446   0.576981   0.128699   x
            x  O            3         0.890610   0.076820   0.371017   x
            x  O            4         0.390608   0.576819   0.371015   x
            x  O            5         0.890555   0.923018   0.871303   x
            x  O            6         0.390554   0.423019   0.871301   x
            x  O            7         0.109390   0.923180   0.628983   x
            x  O            8         0.609392   0.423181   0.628985   x
            x  O            9         0.361076   0.263108   0.294856   x
            x  O           10         0.861075   0.763108   0.294856   x
            x  O           11         0.638826   0.263407   0.204961   x
            x  O           12         0.138826   0.763408   0.204961   x
            x  O           13         0.638924   0.736892   0.705144   x
            x  O           14         0.138925   0.236892   0.705144   x
            x  O           15         0.361174   0.736593   0.795039   x
            x  O           16         0.861174   0.236592   0.795039   x
            x  O           17         0.353298   0.008177   1.004669   x
            x  O           18         0.853300   0.508173   1.004678   x
            x  O           19         0.646635   0.008349   0.495067   x
            x  O           20         0.146633   0.508346   0.495058   x
            x  O           21         0.646702   0.991823  -0.004669   x
            x  O           22         0.146700   0.491827  -0.004678   x
            x  O           23         0.353365   0.991651   0.504933   x
            x  O           24         0.853367   0.491654   0.504942   x
            x  Na           1         0.000025   0.301066   0.250170   x
            x  Na           2         0.500025   0.801069   0.250170   x
            x  Na           3        -0.000025   0.698934   0.749830   x
            x  Na           4         0.499975   0.198931   0.749830   x
            x  Al           1        -0.000212   0.906438   0.249871   x
            x  Al           2         0.499788   0.406439   0.249871   x
            x  Al           3         0.000212   0.093562   0.750129   x
            x  Al           4         0.500212   0.593561   0.750129   x
            x  Si           1         0.291216   0.093235   0.228416   x
            x  Si           2         0.791217   0.593234   0.228421   x
            x  Si           3         0.708553   0.092774   0.271421   x
            x  Si           4         0.208552   0.592774   0.271415   x
            x  Si           5         0.708784   0.906765   0.771584   x
            x  Si           6         0.208783   0.406766   0.771579   x
            x  Si           7         0.291447   0.907226   0.728579   x
            x  Si           8         0.791448   0.407226   0.728585   x
            xxxxxxxxxxxxxxxxxxxxxxxxxxxxxxxxxxxxxxxxxxxxxxxxxxxxxxxxxxxx
 
 
------------------------------------------------------------------------ <-- SCF
SCF loop      Energy                           Energy gain       Timer   <-- SCF
                                               per atom          (sec)   <-- SCF
------------------------------------------------------------------------ <-- SCF
Initial  -1.68460548E+004                                        471.63  <-- SCF
      1  -1.68461795E+004                    3.11759140E-003     490.00  <-- SCF
      2  -1.68461795E+004                    1.20812119E-006     508.10  <-- SCF
      3  -1.68461795E+004                    1.03289871E-008     526.27  <-- SCF
      4  -1.68461795E+004                    2.15467587E-010     544.41  <-- SCF
      5  -1.68461795E+004                    4.87238262E-012     565.60  <-- SCF
------------------------------------------------------------------------ <-- SCF
 
Final energy =  -16846.17952319     eV
(energy not corrected for finite basis set)
 
 
 *********************************** Forces ***********************************
 *                                                                            *
 *                        Cartesian components (eV/A)                         *
 * -------------------------------------------------------------------------- *
 *                   x                    y                    z              *
 *                                                                            *
 * O         1     -0.03545             -0.02516             -0.02728         *
 * O         2     -0.03544             -0.02509             -0.02728         *
 * O         3     -0.01736             -0.03477              0.01382         *
 * O         4     -0.01737             -0.03470              0.01382         *
 * O         5      0.03545              0.02516              0.02728         *
 * O         6      0.03544              0.02509              0.02728         *
 * O         7      0.01736              0.03477             -0.01382         *
 * O         8      0.01737              0.03470             -0.01382         *
 * O         9      0.04279             -0.02273             -0.02947         *
 * O        10      0.04284             -0.02270             -0.02944         *
 * O        11     -0.06422              0.00731              0.02639         *
 * O        12     -0.06428              0.00735              0.02636         *
 * O        13     -0.04279              0.02273              0.02947         *
 * O        14     -0.04284              0.02270              0.02944         *
 * O        15      0.06422             -0.00731             -0.02639         *
 * O        16      0.06428             -0.00735             -0.02636         *
 * O        17      0.01266             -0.01667              0.02032         *
 * O        18      0.01255             -0.01663              0.02027         *
 * O        19     -0.00544             -0.00782             -0.02652         *
 * O        20     -0.00533             -0.00777             -0.02648         *
 * O        21     -0.01266              0.01667             -0.02032         *
 * O        22     -0.01255              0.01663             -0.02027         *
 * O        23      0.00544              0.00782              0.02652         *
 * O        24      0.00533              0.00777              0.02648         *
 * Na        1      0.00028             -0.04075              0.01403         *
 * Na        2      0.00029             -0.04084              0.01403         *
 * Na        3     -0.00028              0.04075             -0.01403         *
 * Na        4     -0.00029              0.04084             -0.01403         *
 * Al        1     -0.01241             -0.01865              0.00713         *
 * Al        2     -0.01241             -0.01865              0.00713         *
 * Al        3      0.01241              0.01865             -0.00713         *
 * Al        4      0.01241              0.01865             -0.00713         *
 * Si        1     -0.02995              0.02649             -0.00728         *
 * Si        2     -0.03008              0.02641             -0.00732         *
 * Si        3      0.07139             -0.00248              0.02317         *
 * Si        4      0.07152             -0.00257              0.02322         *
 * Si        5      0.02995             -0.02649              0.00728         *
 * Si        6      0.03008             -0.02641              0.00732         *
 * Si        7     -0.07139              0.00248             -0.02317         *
 * Si        8     -0.07152              0.00257             -0.02322         *
 *                                                                            *
 ******************************************************************************
  
 +------------+-------------+-------------+-----------------+ <-- min BFGS
 |    Step    |   lambda    |   F.delta   |    enthalpy     | <-- min BFGS
 +------------+-------------+-------------+-----------------+ <-- min BFGS
 |  previous  |    0.000000 |    0.000048 |   -16835.266148 | <-- min BFGS
 | trial step |    1.000000 |    0.000042 |   -16835.267372 | <-- min BFGS
 |  line step |    7.405008 |    0.000000 |   -16835.271002 | <-- min BFGS
 +------------+-------------+-------------+-----------------+ <-- min BFGS
  
 BFGS: finished iteration     2 with enthalpy= -1.68352710E+004 eV
  
 +-----------+-----------------+-----------------+------------+-----+ <-- BFGS
 | Parameter |      value      |    tolerance    |    units   | OK? | <-- BFGS
 +-----------+-----------------+-----------------+------------+-----+ <-- BFGS
 |  dE/ion   |   1.213607E-004 |   2.000000E-007 |         eV | No  | <-- BFGS
 |  |F|max   |   7.523742E-002 |   1.000000E-003 |       eV/A | No  | <-- BFGS
 |  |dR|max  |   4.880251E-003 |   1.000000E-003 |          A | No  | <-- BFGS
 +-----------+-----------------+-----------------+------------+-----+ <-- BFGS
  

================================================================================
 Starting BFGS iteration          3 ...
================================================================================
 
Writing model to jadeite_4_30_GPa_cij__2__3.check
  
 +------------+-------------+-------------+-----------------+ <-- min BFGS
 |    Step    |   lambda    |   F.delta   |    enthalpy     | <-- min BFGS
 +------------+-------------+-------------+-----------------+ <-- min BFGS
 |  previous  |    0.000000 |    0.000017 |   -16835.271002 | <-- min BFGS
 +------------+-------------+-------------+-----------------+ <-- min BFGS
  

--------------------------------------------------------------------------------
 BFGS: starting iteration         3 with trial guess (lambda=  1.000000)
--------------------------------------------------------------------------------
 
                           -------------------------------
                                     Cell Contents
                           -------------------------------
 
            xxxxxxxxxxxxxxxxxxxxxxxxxxxxxxxxxxxxxxxxxxxxxxxxxxxxxxxxxxxx
            x  Element    Atom        Fractional coordinates of atoms  x
            x            Number           u          v          w      x
            x----------------------------------------------------------x
            x  O            1         0.109438   0.076969   0.128654   x
            x  O            2         0.609439   0.576968   0.128656   x
            x  O            3         0.890592   0.076795   0.371026   x
            x  O            4         0.390591   0.576794   0.371024   x
            x  O            5         0.890562   0.923031   0.871346   x
            x  O            6         0.390561   0.423032   0.871344   x
            x  O            7         0.109408   0.923205   0.628974   x
            x  O            8         0.609409   0.423206   0.628976   x
            x  O            9         0.361099   0.263076   0.294829   x
            x  O           10         0.861099   0.763077   0.294829   x
            x  O           11         0.638793   0.263386   0.204979   x
            x  O           12         0.138794   0.763386   0.204980   x
            x  O           13         0.638901   0.736924   0.705171   x
            x  O           14         0.138901   0.236923   0.705171   x
            x  O           15         0.361207   0.736614   0.795021   x
            x  O           16         0.861206   0.236614   0.795020   x
            x  O           17         0.353292   0.008165   1.004696   x
            x  O           18         0.853294   0.508162   1.004705   x
            x  O           19         0.646642   0.008337   0.495053   x
            x  O           20         0.146640   0.508334   0.495044   x
            x  O           21         0.646708   0.991835  -0.004696   x
            x  O           22         0.146706   0.491838  -0.004705   x
            x  O           23         0.353358   0.991663   0.504947   x
            x  O           24         0.853360   0.491666   0.504956   x
            x  Na           1         0.000025   0.301036   0.250187   x
            x  Na           2         0.500025   0.801040   0.250187   x
            x  Na           3        -0.000025   0.698964   0.749813   x
            x  Na           4         0.499975   0.198960   0.749813   x
            x  Al           1        -0.000222   0.906432   0.249871   x
            x  Al           2         0.499778   0.406433   0.249871   x
            x  Al           3         0.000222   0.093568   0.750129   x
            x  Al           4         0.500222   0.593567   0.750129   x
            x  Si           1         0.291196   0.093239   0.228401   x
            x  Si           2         0.791197   0.593239   0.228406   x
            x  Si           3         0.708586   0.092777   0.271452   x
            x  Si           4         0.208584   0.592776   0.271447   x
            x  Si           5         0.708804   0.906761   0.771599   x
            x  Si           6         0.208803   0.406761   0.771594   x
            x  Si           7         0.291414   0.907223   0.728548   x
            x  Si           8         0.791416   0.407224   0.728553   x
            xxxxxxxxxxxxxxxxxxxxxxxxxxxxxxxxxxxxxxxxxxxxxxxxxxxxxxxxxxxx
 
 
------------------------------------------------------------------------ <-- SCF
SCF loop      Energy                           Energy gain       Timer   <-- SCF
                                               per atom          (sec)   <-- SCF
------------------------------------------------------------------------ <-- SCF
Initial  -1.68461784E+004                                        575.31  <-- SCF
      1  -1.68461800E+004                    3.99334001E-005     593.58  <-- SCF
      2  -1.68461800E+004                    1.59302936E-008     611.84  <-- SCF
      3  -1.68461800E+004                    1.12683515E-010     630.02  <-- SCF
      4  -1.68461800E+004                    2.93889745E-012     651.96  <-- SCF
------------------------------------------------------------------------ <-- SCF
 
Final energy =  -16846.17995844     eV
(energy not corrected for finite basis set)
 
 
 *********************************** Forces ***********************************
 *                                                                            *
 *                        Cartesian components (eV/A)                         *
 * -------------------------------------------------------------------------- *
 *                   x                    y                    z              *
 *                                                                            *
 * O         1     -0.03755             -0.02426             -0.02430         *
 * O         2     -0.03755             -0.02419             -0.02431         *
 * O         3     -0.00522             -0.03410              0.01321         *
 * O         4     -0.00522             -0.03404              0.01322         *
 * O         5      0.03755              0.02426              0.02430         *
 * O         6      0.03755              0.02419              0.02431         *
 * O         7      0.00522              0.03410             -0.01321         *
 * O         8      0.00522              0.03404             -0.01322         *
 * O         9      0.04181             -0.01642             -0.02698         *
 * O        10      0.04185             -0.01641             -0.02695         *
 * O        11     -0.06036              0.00830              0.02564         *
 * O        12     -0.06040              0.00831              0.02562         *
 * O        13     -0.04181              0.01642              0.02698         *
 * O        14     -0.04185              0.01641              0.02695         *
 * O        15      0.06036             -0.00830             -0.02564         *
 * O        16      0.06040             -0.00831             -0.02562         *
 * O        17      0.01008             -0.01989              0.01515         *
 * O        18      0.00997             -0.01985              0.01510         *
 * O        19     -0.00316             -0.00917             -0.02469         *
 * O        20     -0.00305             -0.00912             -0.02464         *
 * O        21     -0.01008              0.01989             -0.01515         *
 * O        22     -0.00997              0.01985             -0.01510         *
 * O        23      0.00316              0.00917              0.02469         *
 * O        24      0.00305              0.00912              0.02464         *
 * Na        1      0.00004             -0.03837              0.01341         *
 * Na        2      0.00004             -0.03846              0.01341         *
 * Na        3     -0.00004              0.03837             -0.01341         *
 * Na        4     -0.00004              0.03846             -0.01341         *
 * Al        1     -0.01154             -0.02008              0.00543         *
 * Al        2     -0.01154             -0.02008              0.00543         *
 * Al        3      0.01154              0.02008             -0.00543         *
 * Al        4      0.01154              0.02008             -0.00543         *
 * Si        1     -0.02416              0.01989             -0.00666         *
 * Si        2     -0.02425              0.01985             -0.00669         *
 * Si        3      0.05352             -0.00534              0.01925         *
 * Si        4      0.05362             -0.00539              0.01929         *
 * Si        5      0.02416             -0.01989              0.00666         *
 * Si        6      0.02425             -0.01985              0.00669         *
 * Si        7     -0.05352              0.00534             -0.01925         *
 * Si        8     -0.05362              0.00539             -0.01929         *
 *                                                                            *
 ******************************************************************************
  
 +------------+-------------+-------------+-----------------+ <-- min BFGS
 |    Step    |   lambda    |   F.delta   |    enthalpy     | <-- min BFGS
 +------------+-------------+-------------+-----------------+ <-- min BFGS
 |  previous  |    0.000000 |    0.000017 |   -16835.271002 | <-- min BFGS
 | trial step |    1.000000 |    0.000015 |   -16835.271438 | <-- min BFGS
 +------------+-------------+-------------+-----------------+ <-- min BFGS
  

--------------------------------------------------------------------------------
 BFGS: improving iteration         3 with line minimization (lambda=  8.002846)
--------------------------------------------------------------------------------
 
                           -------------------------------
                                     Cell Contents
                           -------------------------------
 
            xxxxxxxxxxxxxxxxxxxxxxxxxxxxxxxxxxxxxxxxxxxxxxxxxxxxxxxxxxxx
            x  Element    Atom        Fractional coordinates of atoms  x
            x            Number           u          v          w      x
            x----------------------------------------------------------x
            x  O            1         0.109393   0.076882   0.128353   x
            x  O            2         0.609394   0.576882   0.128355   x
            x  O            3         0.890466   0.076623   0.371089   x
            x  O            4         0.390466   0.576622   0.371087   x
            x  O            5         0.890607   0.923118   0.871647   x
            x  O            6         0.390606   0.423118   0.871645   x
            x  O            7         0.109534   0.923377   0.628911   x
            x  O            8         0.609534   0.423378   0.628913   x
            x  O            9         0.361264   0.262855   0.294640   x
            x  O           10         0.861264   0.762855   0.294640   x
            x  O           11         0.638566   0.263237   0.205109   x
            x  O           12         0.138566   0.763237   0.205109   x
            x  O           13         0.638736   0.737145   0.705360   x
            x  O           14         0.138736   0.237145   0.705360   x
            x  O           15         0.361434   0.736763   0.794891   x
            x  O           16         0.861434   0.236763   0.794891   x
            x  O           17         0.353251   0.008083   1.004886   x
            x  O           18         0.853253   0.508080   1.004894   x
            x  O           19         0.646694   0.008248   0.494953   x
            x  O           20         0.146692   0.508245   0.494945   x
            x  O           21         0.646749   0.991917  -0.004886   x
            x  O           22         0.146747   0.491920  -0.004894   x
            x  O           23         0.353306   0.991752   0.505047   x
            x  O           24         0.853308   0.491755   0.505055   x
            x  Na           1         0.000024   0.300827   0.250301   x
            x  Na           2         0.500024   0.800830   0.250301   x
            x  Na           3        -0.000024   0.699173   0.749699   x
            x  Na           4         0.499976   0.199170   0.749699   x
            x  Al           1        -0.000296   0.906393   0.249871   x
            x  Al           2         0.499704   0.406393   0.249871   x
            x  Al           3         0.000296   0.093607   0.750129   x
            x  Al           4         0.500296   0.593607   0.750129   x
            x  Si           1         0.291059   0.093268   0.228293   x
            x  Si           2         0.791060   0.593268   0.228298   x
            x  Si           3         0.708816   0.092795   0.271673   x
            x  Si           4         0.208815   0.592794   0.271668   x
            x  Si           5         0.708941   0.906732   0.771707   x
            x  Si           6         0.208940   0.406732   0.771702   x
            x  Si           7         0.291184   0.907205   0.728327   x
            x  Si           8         0.791185   0.407206   0.728332   x
            xxxxxxxxxxxxxxxxxxxxxxxxxxxxxxxxxxxxxxxxxxxxxxxxxxxxxxxxxxxx
 
 
------------------------------------------------------------------------ <-- SCF
SCF loop      Energy                           Energy gain       Timer   <-- SCF
                                               per atom          (sec)   <-- SCF
------------------------------------------------------------------------ <-- SCF
Initial  -1.68461245E+004                                        660.16  <-- SCF
      1  -1.68461814E+004                    1.42127879E-003     678.52  <-- SCF
      2  -1.68461814E+004                    5.26540679E-007     696.72  <-- SCF
      3  -1.68461814E+004                    3.69318869E-009     714.68  <-- SCF
      4  -1.68461814E+004                    7.98916071E-011     733.53  <-- SCF
------------------------------------------------------------------------ <-- SCF
 
Final energy =  -16846.18138024     eV
(energy not corrected for finite basis set)
 
 
 *********************************** Forces ***********************************
 *                                                                            *
 *                        Cartesian components (eV/A)                         *
 * -------------------------------------------------------------------------- *
 *                   x                    y                    z              *
 *                                                                            *
 * O         1     -0.05217             -0.01797             -0.00348         *
 * O         2     -0.05228             -0.01795             -0.00348         *
 * O         3      0.08059             -0.02962              0.00899         *
 * O         4      0.08071             -0.02960              0.00899         *
 * O         5      0.05217              0.01797              0.00348         *
 * O         6      0.05228              0.01795              0.00348         *
 * O         7     -0.08059              0.02962             -0.00899         *
 * O         8     -0.08071              0.02960             -0.00899         *
 * O         9      0.03505              0.02771             -0.00961         *
 * O        10      0.03498              0.02754             -0.00959         *
 * O        11     -0.03321              0.01501              0.02047         *
 * O        12     -0.03314              0.01483              0.02045         *
 * O        13     -0.03505             -0.02771              0.00961         *
 * O        14     -0.03498             -0.02754              0.00959         *
 * O        15      0.03321             -0.01501             -0.02047         *
 * O        16      0.03314             -0.01483             -0.02045         *
 * O        17     -0.00802             -0.04241             -0.02092         *
 * O        18     -0.00813             -0.04239             -0.02098         *
 * O        19      0.01286             -0.01859             -0.01186         *
 * O        20      0.01296             -0.01857             -0.01179         *
 * O        21      0.00802              0.04241              0.02092         *
 * O        22      0.00813              0.04239              0.02098         *
 * O        23     -0.01286              0.01859              0.01186         *
 * O        24     -0.01296              0.01857              0.01179         *
 * Na        1     -0.00164             -0.02179              0.00913         *
 * Na        2     -0.00164             -0.02184              0.00913         *
 * Na        3      0.00164              0.02179             -0.00913         *
 * Na        4      0.00164              0.02184             -0.00913         *
 * Al        1     -0.00544             -0.03008             -0.00643         *
 * Al        2     -0.00544             -0.03013             -0.00643         *
 * Al        3      0.00544              0.03008              0.00643         *
 * Al        4      0.00544              0.03013              0.00643         *
 * Si        1      0.01631             -0.02621             -0.00227         *
 * Si        2      0.01644             -0.02604             -0.00227         *
 * Si        3     -0.07231             -0.02491             -0.00807         *
 * Si        4     -0.07245             -0.02474             -0.00807         *
 * Si        5     -0.01631              0.02621              0.00227         *
 * Si        6     -0.01644              0.02604              0.00227         *
 * Si        7      0.07231              0.02491              0.00807         *
 * Si        8      0.07245              0.02474              0.00807         *
 *                                                                            *
 ******************************************************************************
  
 +------------+-------------+-------------+-----------------+ <-- min BFGS
 |    Step    |   lambda    |   F.delta   |    enthalpy     | <-- min BFGS
 +------------+-------------+-------------+-----------------+ <-- min BFGS
 |  previous  |    0.000000 |    0.000017 |   -16835.271002 | <-- min BFGS
 | trial step |    1.000000 |    0.000015 |   -16835.271438 | <-- min BFGS
 |  line step |    8.002846 |    0.000000 |   -16835.272859 | <-- min BFGS
 +------------+-------------+-------------+-----------------+ <-- min BFGS
  
 BFGS: finished iteration     3 with enthalpy= -1.68352729E+004 eV
  
 +-----------+-----------------+-----------------+------------+-----+ <-- BFGS
 | Parameter |      value      |    tolerance    |    units   | OK? | <-- BFGS
 +-----------+-----------------+-----------------+------------+-----+ <-- BFGS
 |  dE/ion   |   4.642633E-005 |   2.000000E-007 |         eV | No  | <-- BFGS
 |  |F|max   |   8.643524E-002 |   1.000000E-003 |       eV/A | No  | <-- BFGS
 |  |dR|max  |   3.211452E-003 |   1.000000E-003 |          A | No  | <-- BFGS
[...]
            x  O           20         0.146716   0.506949   0.493570   x
            x  O           21         0.646737   0.993342  -0.006377   x
            x  O           22         0.146737   0.493342  -0.006377   x
            x  O           23         0.353284   0.993051   0.506430   x
            x  O           24         0.853284   0.493051   0.506430   x
            x  Na           1        -0.000299   0.299699   0.251052   x
            x  Na           2         0.499701   0.799699   0.251052   x
            x  Na           3         0.000299   0.700301   0.748948   x
            x  Na           4         0.500299   0.200301   0.748948   x
            x  Al           1        -0.000389   0.906320   0.249779   x
            x  Al           2         0.499611   0.406320   0.249779   x
            x  Al           3         0.000389   0.093680   0.750221   x
            x  Al           4         0.500389   0.593680   0.750221   x
            x  Si           1         0.290970   0.093165   0.228396   x
            x  Si           2         0.790970   0.593165   0.228397   x
            x  Si           3         0.708677   0.092662   0.271402   x
            x  Si           4         0.208677   0.592662   0.271402   x
            x  Si           5         0.709030   0.906835   0.771604   x
            x  Si           6         0.209030   0.406835   0.771603   x
            x  Si           7         0.291323   0.907338   0.728598   x
            x  Si           8         0.791323   0.407338   0.728598   x
            xxxxxxxxxxxxxxxxxxxxxxxxxxxxxxxxxxxxxxxxxxxxxxxxxxxxxxxxxxxx
 
 
 BFGS: Final Enthalpy     = -1.68352760E+004 eV
 BFGS: Final <frequency>  =     954.70864 cm-1
 
 ***************************** Symmetrised Forces *****************************
 *                                                                            *
 *                        Cartesian components (eV/A)                         *
 * -------------------------------------------------------------------------- *
 *                   x                    y                    z              *
 *                                                                            *
 * O         1     -0.00042             -0.00041             -0.00017         *
 * O         2     -0.00043             -0.00041             -0.00017         *
 * O         3     -0.00043             -0.00018             -0.00037         *
 * O         4     -0.00042             -0.00018             -0.00037         *
 * O         5      0.00042              0.00041              0.00017         *
 * O         6      0.00043              0.00041              0.00017         *
 * O         7      0.00043              0.00018              0.00037         *
 * O         8      0.00042              0.00018              0.00037         *
 * O         9     -0.00018             -0.00012              0.00039         *
 * O        10     -0.00019             -0.00013              0.00039         *
 * O        11     -0.00021              0.00033             -0.00018         *
 * O        12     -0.00020              0.00031             -0.00018         *
 * O        13      0.00018              0.00012             -0.00039         *
 * O        14      0.00019              0.00013             -0.00039         *
 * O        15      0.00021             -0.00033              0.00018         *
 * O        16      0.00020             -0.00031              0.00018         *
 * O        17      0.00010              0.00033              0.00043         *
 * O        18      0.00009              0.00033              0.00043         *
 * O        19     -0.00014             -0.00007              0.00035         *
 * O        20     -0.00014             -0.00007              0.00035         *
 * O        21     -0.00010             -0.00033             -0.00043         *
 * O        22     -0.00009             -0.00033             -0.00043         *
 * O        23      0.00014              0.00007             -0.00035         *
 * O        24      0.00014              0.00007             -0.00035         *
 * Na        1      0.00004             -0.00009              0.00001         *
 * Na        2      0.00004             -0.00009              0.00001         *
 * Na        3     -0.00004              0.00009             -0.00001         *
 * Na        4     -0.00004              0.00009             -0.00001         *
 * Al        1     -0.00017             -0.00019             -0.00054         *
 * Al        2     -0.00017             -0.00019             -0.00054         *
 * Al        3      0.00017              0.00019              0.00054         *
 * Al        4      0.00017              0.00019              0.00054         *
 * Si        1      0.00000             -0.00016              0.00022         *
 * Si        2      0.00002             -0.00014              0.00022         *
 * Si        3     -0.00033              0.00004             -0.00008         *
 * Si        4     -0.00034              0.00005             -0.00008         *
 * Si        5      0.00000              0.00016             -0.00022         *
 * Si        6     -0.00002              0.00014             -0.00022         *
 * Si        7      0.00033             -0.00004              0.00008         *
 * Si        8      0.00034             -0.00005              0.00008         *
 *                                                                            *
 ******************************************************************************
 
 *********** Symmetrised Stress Tensor ***********
 *                                               *
 *          Cartesian components (GPa)           *
 * --------------------------------------------- *
 *             x             y             z     *
 *                                               *
 *  x     -3.198448      0.664655      0.622931  *
 *  y      0.664655     -3.024302      0.096497  *
 *  z      0.622931      0.096497     -0.527351  *
 *                                               *
 *  Pressure:    2.2500                          *
 *                                               *
 *************************************************
 
 Pseudo atomic calculation performed for O 2s2 2p4
 
 Converged in 36 iterations to a total energy of -429.6485 eV
 
 
 Pseudo atomic calculation performed for Na 2s2 2p6 3s1
 
 Converged in 33 iterations to a total energy of -1302.8467 eV
 
 
 Pseudo atomic calculation performed for Al 3s2 3p1
 
 Converged in 20 iterations to a total energy of -52.7392 eV
 
 
 Pseudo atomic calculation performed for Si 3s2 3p2
 
 Converged in 21 iterations to a total energy of -101.9044 eV
 
Charge spilling parameter for spin component 1 = 0.85%
 
     Atomic Populations (Mulliken)
     -----------------------------
Species   Ion     s      p      d      f     Total  Charge (e)
==============================================================
  O        1     1.85   5.23   0.00   0.00   7.08    -1.08
  O        2     1.85   5.23   0.00   0.00   7.08    -1.08
  O        3     1.85   5.24   0.00   0.00   7.08    -1.08
  O        4     1.85   5.24   0.00   0.00   7.08    -1.08
  O        5     1.85   5.23   0.00   0.00   7.08    -1.08
  O        6     1.85   5.23   0.00   0.00   7.08    -1.08
  O        7     1.85   5.24   0.00   0.00   7.08    -1.08
  O        8     1.85   5.24   0.00   0.00   7.08    -1.08
  O        9     1.84   5.29   0.00   0.00   7.12    -1.12
  O       10     1.84   5.29   0.00   0.00   7.12    -1.12
  O       11     1.84   5.29   0.00   0.00   7.13    -1.13
  O       12     1.84   5.29   0.00   0.00   7.13    -1.13
  O       13     1.84   5.29   0.00   0.00   7.12    -1.12
  O       14     1.84   5.29   0.00   0.00   7.12    -1.12
  O       15     1.84   5.29   0.00   0.00   7.13    -1.13
  O       16     1.84   5.29   0.00   0.00   7.13    -1.13
  O       17     1.83   5.30   0.00   0.00   7.12    -1.12
  O       18     1.83   5.30   0.00   0.00   7.12    -1.12
  O       19     1.83   5.30   0.00   0.00   7.12    -1.12
  O       20     1.83   5.30   0.00   0.00   7.12    -1.12
  O       21     1.83   5.30   0.00   0.00   7.12    -1.12
  O       22     1.83   5.30   0.00   0.00   7.12    -1.12
  O       23     1.83   5.30   0.00   0.00   7.12    -1.12
  O       24     1.83   5.30   0.00   0.00   7.12    -1.12
  Na       1     2.04   5.78   0.00   0.00   7.82     1.18
  Na       2     2.04   5.78   0.00   0.00   7.82     1.18
  Na       3     2.04   5.78   0.00   0.00   7.82     1.18
  Na       4     2.04   5.78   0.00   0.00   7.82     1.18
  Al       1     0.51   0.91   0.00   0.00   1.43     1.57
  Al       2     0.51   0.91   0.00   0.00   1.43     1.57
  Al       3     0.51   0.91   0.00   0.00   1.43     1.57
  Al       4     0.51   0.91   0.00   0.00   1.43     1.57
  Si       1     0.69   1.36   0.00   0.00   2.05     1.95
  Si       2     0.69   1.36   0.00   0.00   2.05     1.95
  Si       3     0.69   1.36   0.00   0.00   2.05     1.95
  Si       4     0.69   1.36   0.00   0.00   2.05     1.95
  Si       5     0.69   1.36   0.00   0.00   2.05     1.95
  Si       6     0.69   1.36   0.00   0.00   2.05     1.95
  Si       7     0.69   1.36   0.00   0.00   2.05     1.95
  Si       8     0.69   1.36   0.00   0.00   2.05     1.95
==============================================================
 
     Bond                     Population      Length (A)
============================================================
   O 011 --   Si 003               0.76        1.59280
   O 015 --   Si 007               0.76        1.59280
   O 012 --   Si 004               0.76        1.59280
   O 016 --   Si 008               0.76        1.59280
   O 009 --   Si 001               0.76        1.59484
   O 013 --   Si 005               0.76        1.59484
   O 014 --   Si 006               0.76        1.59484
   O 010 --   Si 002               0.76        1.59484
   O 020 --   Si 004               0.56        1.63588
   O 024 --   Si 008               0.56        1.63588
   O 023 --   Si 007               0.56        1.63588
   O 019 --   Si 003               0.56        1.63588
   O 018 --   Si 002               0.56        1.63635
   O 022 --   Si 006               0.56        1.63635
   O 021 --   Si 005               0.56        1.63635
   O 017 --   Si 001               0.56        1.63635
   O 008 --   Si 008               0.59        1.63879
   O 004 --   Si 004               0.59        1.63879
   O 007 --   Si 007               0.59        1.63879
   O 003 --   Si 003               0.59        1.63879
   O 002 --   Si 002               0.59        1.63970
   O 006 --   Si 006               0.59        1.63970
   O 005 --   Si 005               0.59        1.63970
   O 001 --   Si 001               0.59        1.63970
   O 021 --   Si 003               0.58        1.64679
   O 017 --   Si 007               0.58        1.64679
   O 022 --   Si 004               0.58        1.64679
   O 018 --   Si 008               0.58        1.64679
   O 019 --   Si 005               0.58        1.64738
   O 023 --   Si 001               0.58        1.64738
   O 020 --   Si 006               0.58        1.64738
   O 024 --   Si 002               0.58        1.64738
   O 016 --   Al 003               0.43        1.84924
   O 012 --   Al 001               0.43        1.84924
   O 015 --   Al 004               0.43        1.84924
   O 011 --   Al 002               0.43        1.84924
   O 014 --   Al 003               0.42        1.86069
   O 010 --   Al 001               0.42        1.86069
   O 009 --   Al 002               0.42        1.86069
   O 013 --   Al 004               0.42        1.86069
   O 005 --   Al 001               0.32        1.95854
   O 001 --   Al 003               0.32        1.95854
   O 002 --   Al 004               0.32        1.95854
   O 006 --   Al 002               0.32        1.95854
   O 003 --   Al 003               0.32        1.96618
   O 007 --   Al 001               0.32        1.96618
   O 008 --   Al 002               0.32        1.96618
   O 004 --   Al 004               0.32        1.96618
   O 008 --   Al 004               0.32        1.98878
   O 004 --   Al 002               0.32        1.98878
   O 003 --   Al 001               0.32        1.98878
   O 007 --   Al 003               0.32        1.98878
   O 006 --   Al 004               0.31        2.00562
   O 002 --   Al 002               0.31        2.00562
   O 001 --   Al 001               0.31        2.00562
   O 005 --   Al 003               0.31        2.00562
   O 005 --   Na 003              -0.01        2.34563
   O 001 --   Na 001              -0.01        2.34563
   O 002 --   Na 002              -0.01        2.34563
   O 006 --   Na 004              -0.01        2.34563
   O 007 --   Na 003              -0.01        2.35331
   O 003 --   Na 001              -0.01        2.35331
   O 008 --   Na 004              -0.01        2.35331
   O 004 --   Na 002              -0.01        2.35331
   O 018 --   Na 001              -0.04        2.36791
   O 022 --   Na 003              -0.04        2.36791
   O 017 --   Na 002              -0.04        2.36791
   O 021 --   Na 004              -0.04        2.36791
   O 024 --   Na 003              -0.03        2.38246
   O 020 --   Na 001              -0.03        2.38246
   O 019 --   Na 002              -0.03        2.38246
   O 023 --   Na 004              -0.03        2.38246
   O 014 --   Na 001              -0.05        2.42845
   O 010 --   Na 003              -0.05        2.42845
   O 013 --   Na 002              -0.05        2.42845
   O 009 --   Na 004              -0.05        2.42845
   O 012 --   Na 003              -0.06        2.43983
   O 016 --   Na 001              -0.06        2.43983
   O 015 --   Na 002              -0.06        2.43983
   O 011 --   Na 004              -0.06        2.43983
   O 003 --    O 007              -0.11        2.46615
   O 004 --    O 008              -0.11        2.46615
   O 001 --    O 005              -0.10        2.48150
   O 002 --    O 006              -0.10        2.48150
   O 011 --    O 021              -0.10        2.58080
   O 015 --    O 017              -0.10        2.58080
   O 012 --    O 022              -0.10        2.58080
   O 016 --    O 018              -0.10        2.58080
   O 013 --    O 019              -0.10        2.58122
   O 009 --    O 023              -0.10        2.58122
   O 014 --    O 020              -0.10        2.58122
   O 010 --    O 024              -0.10        2.58122
   O 006 --    O 022              -0.09        2.63227
   O 002 --    O 018              -0.09        2.63227
   O 005 --    O 021              -0.09        2.63227
   O 001 --    O 017              -0.09        2.63227
   O 004 --    O 020              -0.09        2.63757
   O 008 --    O 024              -0.09        2.63757
   O 007 --    O 023              -0.09        2.63757
   O 003 --    O 019              -0.09        2.63757
   O 020 --    O 022              -0.15        2.64564
   O 018 --    O 024              -0.15        2.64564
   O 017 --    O 023              -0.15        2.64564
   O 019 --    O 021              -0.15        2.64564
   O 005 --    O 019              -0.08        2.64673
   O 001 --    O 023              -0.08        2.64673
   O 006 --    O 020              -0.08        2.64673
   O 002 --    O 024              -0.08        2.64673
   O 003 --    O 021              -0.08        2.65093
   O 007 --    O 017              -0.08        2.65093
   O 004 --    O 022              -0.08        2.65093
   O 008 --    O 018              -0.08        2.65093
   O 012 --    O 020              -0.08        2.65513
   O 016 --    O 024              -0.08        2.65513
   O 011 --    O 019              -0.08        2.65513
   O 015 --    O 023              -0.08        2.65513
   O 010 --    O 018              -0.08        2.65571
   O 014 --    O 022              -0.08        2.65571
   O 009 --    O 017              -0.08        2.65571
   O 013 --    O 021              -0.08        2.65571
   O 003 --    O 016              -0.07        2.70417
   O 007 --    O 012              -0.07        2.70417
   O 004 --    O 015              -0.07        2.70417
   O 008 --    O 011              -0.07        2.70417
   O 005 --    O 010              -0.07        2.70464
   O 001 --    O 014              -0.07        2.70464
   O 006 --    O 009              -0.07        2.70464
   O 002 --    O 013              -0.07        2.70464
   O 006 --    O 015              -0.05        2.71417
   O 002 --    O 011              -0.05        2.71417
   O 005 --    O 016              -0.05        2.71417
   O 001 --    O 012              -0.05        2.71417
   O 008 --    O 013              -0.05        2.71696
   O 004 --    O 009              -0.05        2.71696
   O 003 --    O 010              -0.05        2.71696
   O 007 --    O 014              -0.05        2.71696
   O 001 --    O 003              -0.05        2.73333
   O 005 --    O 007              -0.05        2.73333
   O 006 --    O 008              -0.05        2.73333
   O 002 --    O 004              -0.05        2.73333
   O 019 --   Na 004              -0.02        2.74761
   O 023 --   Na 002              -0.02        2.74761
   O 024 --   Na 001              -0.02        2.74761
   O 020 --   Na 003              -0.02        2.74761
   O 004 --    O 012              -0.06        2.76779
   O 008 --    O 016              -0.06        2.76779
   O 003 --    O 011              -0.06        2.76779
   O 007 --    O 015              -0.06        2.76779
   O 021 --   Na 002              -0.02        2.77159
   O 017 --   Na 004              -0.02        2.77159
   O 018 --   Na 003              -0.02        2.77159
   O 022 --   Na 001              -0.02        2.77159
   O 006 --    O 014              -0.06        2.78260
   O 002 --    O 010              -0.06        2.78260
   O 001 --    O 009              -0.06        2.78260
   O 005 --    O 013              -0.06        2.78260
   O 013 --    O 015              -0.05        2.78359
   O 009 --    O 011              -0.05        2.78359
   O 010 --    O 012              -0.05        2.78359
   O 014 --    O 016              -0.05        2.78359
   O 018 --    O 022              -0.04        2.78606
   O 017 --    O 021              -0.04        2.78606
   O 020 --    O 024              -0.04        2.78770
   O 019 --    O 023              -0.04        2.78770
   O 001 --    O 016              -0.04        2.81532
   O 005 --    O 012              -0.04        2.81532
   O 002 --    O 015              -0.04        2.81532
   O 006 --    O 011              -0.04        2.81532
   O 007 --    O 010              -0.04        2.83913
   O 003 --    O 014              -0.04        2.83913
   O 008 --    O 009              -0.04        2.83913
   O 004 --    O 013              -0.04        2.83913
   O 010 --    O 021              -0.02        2.91595
   O 014 --    O 017              -0.02        2.91595
   O 009 --    O 022              -0.02        2.91595
   O 013 --    O 018              -0.02        2.91595
   O 016 --    O 019              -0.02        2.93344
   O 012 --    O 023              -0.02        2.93344
   O 015 --    O 020              -0.02        2.93344
   O 011 --    O 024              -0.02        2.93344
   O 004 --    O 006              -0.05        2.94788
   O 002 --    O 008              -0.05        2.94788
   O 003 --    O 005              -0.05        2.94788
   O 001 --    O 007              -0.05        2.94788
============================================================
 
 
Writing model to jadeite_4_30_GPa_cij__2__3.check
 
Writing analysis data to jadeite_4_30_GPa_cij__2__3.castep_bin
Initialisation time =      2.22 s
Calculation time    =   3675.96 s
Finalisation time   =      1.31 s
Total time          =   3679.49 s
Peak Memory Use     = 283944 kB
