 +-------------------------------------------------+
 |                                                 |
 |      CCC   AA    SSS  TTTTT  EEEEE  PPPP        |
 |     C     A  A  S       T    E      P   P       |
 |     C     AAAA   SS     T    EEE    PPPP        |
 |     C     A  A     S    T    E      P           |
 |      CCC  A  A  SSS     T    EEEEE  P           |
 |                                                 |
 +-------------------------------------------------+
 |                                                 |
 | Welcome to Academic Release CASTEP version 5.02 |
 | Ab Initio Total Energy Program                  |
 |                                                 |
 | Authors:                                        |
 | M. Segall, M. Probert, C. Pickard, P. Hasnip,   |
 | S. Clark, K. Refson, M. Payne                   |
 |                                                 |
 | Contributors:                                   |
 | P. Lindan, P. Haynes, J. White, V. Milman,      |
 | N. Govind, M. Gibson, P. Tulip, V. Cocula,      |
 | B. Montanari, D. Quigley, M. Glover,            |
 | L. Bernasconi, A. Perlov, M. Plummer            |
 |                                                 |
 | Copyright (c) 2000 - 2009                       |
 |                                                 |
 |     Distributed under the terms of an           |
 |     Agreement between the United Kingdom        |
 |     Car-Parrinello (UKCP) Consortium,           |
 |     Daresbury Laboratory and Accelrys, Inc.     |
 |                                                 |
 | Please cite                                     |
 |                                                 |
 |     "First principles methods using CASTEP"     |
 |                                                 |
 |         Zeitschrift fuer Kristallographie       |
 |           220(5-6) pp. 567-570 (2005)           |
 |                                                 |
 | S. J. Clark, M. D. Segall, C. J. Pickard,       |
 | P. J. Hasnip, M. J. Probert, K. Refson,         |
 | M. C. Payne                                     |
 |                                                 |
 |       in all publications arising from          |
 |              your use of CASTEP                 |
 |                                                 |
 +-------------------------------------------------+
 
 
 Pseudo atomic calculation performed for O 2s2 2p4
 
 Converged in 36 iterations to a total energy of -429.6485 eV
 
 
 Pseudo atomic calculation performed for Na 2s2 2p6 3s1
 
 Converged in 33 iterations to a total energy of -1302.8467 eV
 
 
 Pseudo atomic calculation performed for Al 3s2 3p1
 
 Converged in 20 iterations to a total energy of -52.7392 eV
 
 
 Pseudo atomic calculation performed for Si 3s2 3p2
 
 Converged in 21 iterations to a total energy of -101.9044 eV
 
Calculation parallelised over   36 nodes.
K-points are distributed over    6 groups, each containing    6 nodes.

 ************************************ Title ************************************
 

 ***************************** General Parameters ******************************
  
 output verbosity                               : normal  (1)
 write checkpoint data to                       : jadeite_4_30_GPa_cij__1__6.check
 type of calculation                            : geometry optimization
 stress calculation                             : on
 density difference calculation                 : off
 electron localisation func (ELF) calculation   : off
 Hirshfeld analysis                             : off
 unlimited duration calculation
 timing information                             : on
 memory usage estimate                          : on
 write final potential to formatted file        : off
 write final density to formatted file          : off
  
 output         length unit                     : A
 output           mass unit                     : amu
 output           time unit                     : ps
 output         charge unit                     : e
 output         energy unit                     : eV
 output          force unit                     : eV/A
 output       velocity unit                     : A/ps
 output       pressure unit                     : GPa
 output     inv_length unit                     : 1/A
 output      frequency unit                     : cm-1
 output force constant unit                     : eV/A**2
 output         volume unit                     : A**3
 output   IR intensity unit                     : (D/A)**2/amu
 output         dipole unit                     : D
 output         efield unit                     : eV/A/e
  
 wavefunctions paging                           : none
 data distribution                              : optimal for this architecture
 optimization strategy                          : maximize speed(+++)

 *********************** Exchange-Correlation Parameters ***********************
  
 using functional                               : Perdew Burke Ernzerhof
 Divergence correction                          : off
 DFT+D: Semi-empirical dispersion correction    : off

 ************************* Pseudopotential Parameters **************************
  
 pseudopotential representation                 : reciprocal space
 <beta|phi> representation                      : reciprocal space

 **************************** Basis Set Parameters *****************************
  
 plane wave basis set cut-off                   :   700.0000   eV
 finite basis set correction                    : none

 **************************** Electronic Parameters ****************************
  
 number of  electrons                           :  224.0    
 net charge of system                           :  0.000    
 net spin   of system                           :  0.000    
 number of  up  spins                           :  112.0    
 number of down spins                           :  112.0    
 treating system as non-spin-polarized
 number of bands                                :        112

 ********************* Electronic Minimization Parameters **********************
  
 Method: Treating system as non-metallic,
         and number of  SD  steps               :          1
         and number of  CG  steps               :          4
  
 total energy / atom convergence tol.           : 0.1000E-07   eV
 max force / atom convergence tol.              : ignored
 convergence tolerance window                   :          3   cycles
 max. number of SCF cycles                      :        100

 *********************** Population Analysis Parameters ************************
  
 Population analysis with cutoff                :  3.000       A

 ********************** Geometry Optimization Parameters ***********************
  
 optimization method                            : BFGS
 variable cell method                           : fixed basis quality
 max. number of steps                           :        300
 estimated bulk modulus                         :  500.0       GPa
 estimated <frequency>                          :  1668.       cm-1
 line minimiser tolerance                       :     0.4000
 total energy convergence tolerance             : 0.2000E-06   eV/atom
        max ionic |force| tolerance             : 0.1000E-02   eV/A
 max ionic |displacement| tolerance             : 0.1000E-02   A
   max |stress component| tolerance             : 0.1000E-02   GPa
 convergence tolerance window                   :          2   steps
 backup results every                           :          1   steps

 *******************************************************************************
  
 
                           -------------------------------
                                      Unit Cell
                           -------------------------------
        Real Lattice(A)                      Reciprocal Lattice(1/A)
   8.8813393   0.0000000  -2.8290832        0.7074592   0.0000000   0.0000000
   0.0000000   8.5603493  -0.1000000        0.0000000   0.7339870   0.0000000
   0.0000000   0.0000000   5.2199179        0.3834277   0.0140613   1.2036943
 
                       Lattice parameters(A)       Cell Angles
                    a =    9.321046          alpha =   90.669285
                    b =    8.560933          beta  =  107.668883
                    c =    5.219918          gamma =   89.796866
 
                       Current cell volume =  396.856611       A**3
 
                           -------------------------------
                                     Cell Contents
                           -------------------------------
                         Total number of ions in cell =   40
                      Total number of species in cell =    4
                        Max number of any one species =   24
 
            xxxxxxxxxxxxxxxxxxxxxxxxxxxxxxxxxxxxxxxxxxxxxxxxxxxxxxxxxxxx
            x  Element    Atom        Fractional coordinates of atoms  x
            x            Number           u          v          w      x
            x----------------------------------------------------------x
            x  O            1         0.109277   0.076953   0.129205   x
            x  O            2         0.609279   0.576952   0.129208   x
            x  O            3         0.890723   0.076953   0.370795   x
            x  O            4         0.390721   0.576952   0.370792   x
            x  O            5         0.890723   0.923047   0.870795   x
            x  O            6         0.390721   0.423048   0.870792   x
            x  O            7         0.109277   0.923047   0.629205   x
            x  O            8         0.609279   0.423048   0.629208   x
            x  O            9         0.361047   0.263746   0.295383   x
            x  O           10         0.861046   0.763747   0.295382   x
            x  O           11         0.638953   0.263746   0.204617   x
            x  O           12         0.138954   0.763747   0.204618   x
            x  O           13         0.638953   0.736254   0.704617   x
            x  O           14         0.138954   0.236253   0.704618   x
            x  O           15         0.361047   0.736254   0.795383   x
            x  O           16         0.861046   0.236253   0.795382   x
            x  O           17         0.354029   0.008469   1.005059   x
            x  O           18         0.854032   0.508466   1.005069   x
            x  O           19         0.645971   0.008469   0.494941   x
            x  O           20         0.145968   0.508466   0.494931   x
            x  O           21         0.645971   0.991530  -0.005059   x
            x  O           22         0.145968   0.491534  -0.005069   x
            x  O           23         0.354029   0.991530   0.505059   x
            x  O           24         0.854032   0.491534   0.505069   x
            x  Na           1         0.000000   0.301230   0.250000   x
            x  Na           2         0.500000   0.801235   0.250000   x
            x  Na           3         0.000000   0.698770   0.750000   x
            x  Na           4         0.500000   0.198765   0.750000   x
            x  Al           1         0.000000   0.906276   0.250000   x
            x  Al           2         0.500000   0.406277   0.250000   x
            x  Al           3         0.000000   0.093724   0.750000   x
            x  Al           4         0.500000   0.593723   0.750000   x
            x  Si           1         0.290869   0.093825   0.228100   x
            x  Si           2         0.790871   0.593824   0.228106   x
            x  Si           3         0.709131   0.093825   0.271900   x
            x  Si           4         0.209129   0.593824   0.271894   x
            x  Si           5         0.709131   0.906176   0.771900   x
            x  Si           6         0.209129   0.406176   0.771894   x
            x  Si           7         0.290869   0.906176   0.728100   x
            x  Si           8         0.790871   0.406176   0.728106   x
            xxxxxxxxxxxxxxxxxxxxxxxxxxxxxxxxxxxxxxxxxxxxxxxxxxxxxxxxxxxx
 
 
                         No user defined ionic velocities
 
                           -------------------------------
                                   Details of Species
                           -------------------------------
 
                               Mass of species in AMU
                                    O   15.9994000
                                    Na   22.9897700
                                    Al   26.9815400
                                    Si   28.0855000
 
                          Electric Quadrupole Moment (Barn)
                                    O   -0.0255800 Isotope 17
                                    Na    0.1040000 Isotope 23
                                    Al    0.1466000 Isotope 27
                                    Si    1.0000000 No Isotope Defined
 
                          Files used for pseudopotentials:
                                    O O_00PBE.usp
                                    Na Na_00PBE.usp
                                    Al Al_00PBE.usp
                                    Si Si_00PBE.usp
 
                           -------------------------------
                              k-Points For BZ Sampling
                           -------------------------------
                       MP grid size for SCF calculation is  2  2  3
                         Number of kpoints used = 6
 
             +++++++++++++++++++++++++++++++++++++++++++++++++++++++
             +  Number       Fractional coordinates        Weight  +
             +-----------------------------------------------------+
             +     1  -0.250000   0.250000   0.333333   0.1666667  +
             +     2  -0.250000   0.250000   0.000000   0.1666667  +
             +     3   0.250000  -0.250000   0.333333   0.1666667  +
             +     4  -0.250000  -0.250000   0.333333   0.1666667  +
             +     5   0.250000   0.250000   0.000000   0.1666667  +
             +     6   0.250000   0.250000   0.333333   0.1666667  +
             +++++++++++++++++++++++++++++++++++++++++++++++++++++++
 
                           -------------------------------
                               Symmetry and Constraints
                           -------------------------------
 
                      Number of symmetry operations   = 2
                      Number of ionic constraints     = 3
                      Maximum deviation from symmetry = 0.115611E-14     ANG
               Point group of crystal =     2: Ci, -1, -1
           Set iprint > 1 for details on symmetry rotations/translations
 
                          Centre of mass is constrained
             Set iprint > 1 for details of linear ionic constraints
 
                         Number of cell constraints= 6
                         Cell constraints are:  0 0 0 0 0 0
 
                         External pressure/stress (GPa)
                          4.30000   0.00000   0.00000
                                    4.30000   0.00000
                                              4.30000
  
+---------------- MEMORY AND SCRATCH DISK ESTIMATES PER NODE -----------------+
|                                                     Memory          Disk    |
| Model and support data                               90.9 MB         0.0 MB |
| Electronic energy minimisation requirements          32.1 MB         0.0 MB |
|                                               ----------------------------- |
| Approx. total storage required per node             123.1 MB         0.0 MB |
|                                                                             |
| Requirements will fluctuate during execution and may exceed these estimates |
+-----------------------------------------------------------------------------+
------------------------------------------------------------------------ <-- SCF
SCF loop      Energy                           Energy gain       Timer   <-- SCF
                                               per atom          (sec)   <-- SCF
------------------------------------------------------------------------ <-- SCF
Initial  -1.68516023E+003                                          6.40  <-- SCF
      1  -1.64684504E+004                    3.69582256E+002      25.48  <-- SCF
      2  -1.68114122E+004                    8.57404416E+000      43.72  <-- SCF
      3  -1.68415902E+004                    7.54448487E-001      62.86  <-- SCF
      4  -1.68457884E+004                    1.04955549E-001      81.22  <-- SCF
      5  -1.68458957E+004                    2.68423277E-003      99.09  <-- SCF
      6  -1.68458971E+004                    3.39912086E-005     117.16  <-- SCF
      7  -1.68458971E+004                    8.20482783E-007     135.35  <-- SCF
      8  -1.68458971E+004                    2.55903722E-008     153.41  <-- SCF
      9  -1.68458971E+004                    8.19024316E-010     172.06  <-- SCF
     10  -1.68458971E+004                    2.68367741E-011     191.62  <-- SCF
------------------------------------------------------------------------ <-- SCF
 
Final energy =  -16845.89713968     eV
(energy not corrected for finite basis set)
 
 
Writing model to jadeite_4_30_GPa_cij__1__6.check
 
+---------------- MEMORY AND SCRATCH DISK ESTIMATES PER NODE -----------------+
|                                                     Memory          Disk    |
| Model and support data                               84.2 MB         0.0 MB |
| Geometry minimisation requirements                   37.4 MB         0.0 MB |
|                                               ----------------------------- |
| Approx. total storage required per node             121.6 MB         0.0 MB |
|                                                                             |
| Requirements will fluctuate during execution and may exceed these estimates |
+-----------------------------------------------------------------------------+
 
 
 *********************************** Forces ***********************************
 *                                                                            *
 *                        Cartesian components (eV/A)                         *
 * -------------------------------------------------------------------------- *
 *                   x                    y                    z              *
 *                                                                            *
 * O         1     -0.37381             -0.00063              0.01291         *
 * O         2     -0.37397             -0.00058              0.01287         *
 * O         3      0.40782             -0.02766             -0.02615         *
 * O         4      0.40796             -0.02761             -0.02610         *
 * O         5      0.37381              0.00063             -0.01291         *
 * O         6      0.37397              0.00058             -0.01287         *
 * O         7     -0.40782              0.02766              0.02615         *
 * O         8     -0.40796              0.02761              0.02610         *
 * O         9      0.01162              0.10154              0.05445         *
 * O        10      0.01174              0.10160              0.05446         *
 * O        11      0.06610             -0.02196             -0.01393         *
 * O        12      0.06596             -0.02189             -0.01394         *
 * O        13     -0.01162             -0.10154             -0.05445         *
 * O        14     -0.01174             -0.10160             -0.05446         *
 * O        15     -0.06610              0.02196              0.01393         *
 * O        16     -0.06596              0.02189              0.01394         *
 * O        17      0.20515              0.00955              0.00467         *
 * O        18      0.20510              0.00961              0.00462         *
 * O        19     -0.00151              0.00470             -0.01073         *
 * O        20     -0.00144              0.00478             -0.01069         *
 * O        21     -0.20515             -0.00955             -0.00467         *
 * O        22     -0.20510             -0.00961             -0.00462         *
 * O        23      0.00151             -0.00470              0.01073         *
 * O        24      0.00144             -0.00478              0.01069         *
 * Na        1     -0.02584             -0.00822              0.02484         *
 * Na        2     -0.02583             -0.00834              0.02483         *
 * Na        3      0.02584              0.00822             -0.02484         *
 * Na        4      0.02583              0.00834             -0.02483         *
 * Al        1     -0.04506              0.02580             -0.01048         *
 * Al        2     -0.04506              0.02590             -0.01048         *
 * Al        3      0.04506             -0.02580              0.01048         *
 * Al        4      0.04506             -0.02590              0.01048         *
 * Si        1      0.33685             -0.03147              0.28520         *
 * Si        2      0.33665             -0.03142              0.28519         *
 * Si        3     -0.39394              0.01179              0.28073         *
 * Si        4     -0.39374              0.01181              0.28075         *
 * Si        5     -0.33685              0.03147             -0.28520         *
 * Si        6     -0.33665              0.03142             -0.28519         *
 * Si        7      0.39394             -0.01179             -0.28073         *
 * Si        8      0.39374             -0.01181             -0.28075         *
 *                                                                            *
 ******************************************************************************
 BFGS: finished iteration     0 with enthalpy= -1.68352461E+004 eV
  
 +-----------+-----------------+-----------------+------------+-----+ <-- BFGS
 | Parameter |      value      |    tolerance    |    units   | OK? | <-- BFGS
 +-----------+-----------------+-----------------+------------+-----+ <-- BFGS
 |  dE/ion   |   0.000000E+000 |   2.000000E-007 |         eV | No  | <-- BFGS
 |  |F|max   |   4.838802E-001 |   1.000000E-003 |       eV/A | No  | <-- BFGS
 |  |dR|max  |   0.000000E+000 |   1.000000E-003 |          A | No  | <-- BFGS
 +-----------+-----------------+-----------------+------------+-----+ <-- BFGS
  

================================================================================
 Starting BFGS iteration          1 ...
================================================================================
 
Writing model to jadeite_4_30_GPa_cij__1__6.check
  
 +------------+-------------+-------------+-----------------+ <-- min BFGS
 |    Step    |   lambda    |   F.delta   |    enthalpy     | <-- min BFGS
 +------------+-------------+-------------+-----------------+ <-- min BFGS
 |  previous  |    0.000000 |    0.000571 |   -16835.246107 | <-- min BFGS
 +------------+-------------+-------------+-----------------+ <-- min BFGS
  

--------------------------------------------------------------------------------
 BFGS: starting iteration         1 with trial guess (lambda=  1.000000)
--------------------------------------------------------------------------------
 
                           -------------------------------
                                     Cell Contents
                           -------------------------------
 
            xxxxxxxxxxxxxxxxxxxxxxxxxxxxxxxxxxxxxxxxxxxxxxxxxxxxxxxxxxxx
            x  Element    Atom        Fractional coordinates of atoms  x
            x            Number           u          v          w      x
            x----------------------------------------------------------x
            x  O            1         0.109073   0.076953   0.129107   x
            x  O            2         0.609075   0.576951   0.129110   x
            x  O            3         0.890945   0.076937   0.370891   x
            x  O            4         0.390943   0.576936   0.370888   x
            x  O            5         0.890927   0.923047   0.870893   x
            x  O            6         0.390925   0.423049   0.870890   x
            x  O            7         0.109055   0.923063   0.629109   x
            x  O            8         0.609057   0.423064   0.629112   x
            x  O            9         0.361053   0.263804   0.295438   x
            x  O           10         0.861052   0.763804   0.295437   x
            x  O           11         0.638989   0.263734   0.204623   x
            x  O           12         0.138990   0.763735   0.204624   x
            x  O           13         0.638947   0.736196   0.704562   x
            x  O           14         0.138948   0.236196   0.704563   x
            x  O           15         0.361011   0.736266   0.795377   x
            x  O           16         0.861010   0.236265   0.795376   x
            x  O           17         0.354141   0.008475   1.005124   x
            x  O           18         0.854144   0.508471   1.005134   x
            x  O           19         0.645970   0.008472   0.494931   x
            x  O           20         0.145967   0.508469   0.494921   x
            x  O           21         0.645859   0.991525  -0.005124   x
            x  O           22         0.145856   0.491529  -0.005134   x
            x  O           23         0.354030   0.991528   0.505069   x
            x  O           24         0.854033   0.491531   0.505079   x
            x  Na           1        -0.000014   0.301225   0.250015   x
            x  Na           2         0.499986   0.801230   0.250015   x
            x  Na           3         0.000014   0.698775   0.749985   x
            x  Na           4         0.500014   0.198770   0.749985   x
            x  Al           1        -0.000025   0.906291   0.249977   x
            x  Al           2         0.499975   0.406291   0.249977   x
            x  Al           3         0.000025   0.093709   0.750023   x
            x  Al           4         0.500025   0.593709   0.750023   x
            x  Si           1         0.291052   0.093807   0.228463   x
            x  Si           2         0.791054   0.593806   0.228469   x
            x  Si           3         0.708916   0.093831   0.272044   x
            x  Si           4         0.208915   0.593830   0.272038   x
            x  Si           5         0.708948   0.906193   0.771537   x
            x  Si           6         0.208946   0.406194   0.771531   x
            x  Si           7         0.291084   0.906169   0.727956   x
            x  Si           8         0.791085   0.406170   0.727962   x
            xxxxxxxxxxxxxxxxxxxxxxxxxxxxxxxxxxxxxxxxxxxxxxxxxxxxxxxxxxxx
 
 
------------------------------------------------------------------------ <-- SCF
SCF loop      Energy                           Energy gain       Timer   <-- SCF
                                               per atom          (sec)   <-- SCF
------------------------------------------------------------------------ <-- SCF
Initial  -1.68458790E+004                                        201.86  <-- SCF
      1  -1.68459102E+004                    7.80487504E-004     220.01  <-- SCF
      2  -1.68459102E+004                    2.97256948E-007     238.20  <-- SCF
      3  -1.68459102E+004                    3.52830107E-009     256.48  <-- SCF
      4  -1.68459102E+004                    6.86000537E-011     275.72  <-- SCF
------------------------------------------------------------------------ <-- SCF
 
Final energy =  -16845.91024737     eV
(energy not corrected for finite basis set)
 
 
 *********************************** Forces ***********************************
 *                                                                            *
 *                        Cartesian components (eV/A)                         *
 * -------------------------------------------------------------------------- *
 *                   x                    y                    z              *
 *                                                                            *
 * O         1     -0.24770              0.01247              0.01772         *
 * O         2     -0.24786              0.01252              0.01768         *
 * O         3      0.26781             -0.01010             -0.01990         *
 * O         4      0.26796             -0.01005             -0.01985         *
 * O         5      0.24770             -0.01247             -0.01772         *
 * O         6      0.24786             -0.01252             -0.01768         *
 * O         7     -0.26781              0.01010              0.01990         *
 * O         8     -0.26796              0.01005              0.01985         *
 * O         9      0.00720              0.08190              0.06128         *
 * O        10      0.00729              0.08193              0.06128         *
 * O        11      0.05552             -0.00636             -0.00526         *
 * O        12      0.05542             -0.00633             -0.00527         *
 * O        13     -0.00720             -0.08190             -0.06128         *
 * O        14     -0.00729             -0.08193             -0.06128         *
 * O        15     -0.05552              0.00636              0.00526         *
 * O        16     -0.05542              0.00633              0.00527         *
 * O        17      0.19163              0.01206              0.01004         *
 * O        18      0.19156              0.01212              0.00999         *
 * O        19     -0.03054              0.00362             -0.00186         *
 * O        20     -0.03047              0.00369             -0.00182         *
 * O        21     -0.19163             -0.01206             -0.01004         *
 * O        22     -0.19156             -0.01212             -0.00999         *
 * O        23      0.03054             -0.00362              0.00186         *
 * O        24      0.03047             -0.00369              0.00182         *
 * Na        1     -0.02848             -0.01840              0.02007         *
 * Na        2     -0.02847             -0.01851              0.02007         *
 * Na        3      0.02848              0.01840             -0.02007         *
 * Na        4      0.02847              0.01851             -0.02007         *
 * Al        1     -0.04462              0.04397             -0.00931         *
 * Al        2     -0.04462              0.04406             -0.00931         *
 * Al        3      0.04462             -0.04397              0.00931         *
 * Al        4      0.04462             -0.04406              0.00931         *
 * Si        1      0.21602             -0.02006              0.21362         *
 * Si        2      0.21586             -0.02000              0.21360         *
 * Si        3     -0.24928             -0.00186              0.20650         *
 * Si        4     -0.24911             -0.00182              0.20652         *
 * Si        5     -0.21602              0.02006             -0.21362         *
 * Si        6     -0.21586              0.02000             -0.21360         *
 * Si        7      0.24928              0.00186             -0.20650         *
 * Si        8      0.24911              0.00182             -0.20652         *
 *                                                                            *
 ******************************************************************************
  
 +------------+-------------+-------------+-----------------+ <-- min BFGS
 |    Step    |   lambda    |   F.delta   |    enthalpy     | <-- min BFGS
 +------------+-------------+-------------+-----------------+ <-- min BFGS
 |  previous  |    0.000000 |    0.000571 |   -16835.246107 | <-- min BFGS
 | trial step |    1.000000 |    0.000393 |   -16835.259215 | <-- min BFGS
 +------------+-------------+-------------+-----------------+ <-- min BFGS
  

--------------------------------------------------------------------------------
 BFGS: improving iteration         1 with line minimization (lambda=  3.217409)
--------------------------------------------------------------------------------
 
                           -------------------------------
                                     Cell Contents
                           -------------------------------
 
            xxxxxxxxxxxxxxxxxxxxxxxxxxxxxxxxxxxxxxxxxxxxxxxxxxxxxxxxxxxx
            x  Element    Atom        Fractional coordinates of atoms  x
            x            Number           u          v          w      x
            x----------------------------------------------------------x
            x  O            1         0.108622   0.076952   0.128889   x
            x  O            2         0.608624   0.576950   0.128891   x
            x  O            3         0.891438   0.076903   0.371103   x
            x  O            4         0.391436   0.576901   0.371101   x
            x  O            5         0.891378   0.923048   0.871111   x
            x  O            6         0.391376   0.423050   0.871109   x
            x  O            7         0.108562   0.923097   0.628897   x
            x  O            8         0.608564   0.423099   0.628899   x
            x  O            9         0.361067   0.263931   0.295560   x
            x  O           10         0.861067   0.763932   0.295559   x
            x  O           11         0.639069   0.263707   0.204637   x
            x  O           12         0.139070   0.763707   0.204638   x
            x  O           13         0.638933   0.736069   0.704440   x
            x  O           14         0.138933   0.236068   0.704441   x
            x  O           15         0.360931   0.736293   0.795363   x
            x  O           16         0.860930   0.236293   0.795362   x
            x  O           17         0.354388   0.008487   1.005268   x
            x  O           18         0.854391   0.508483   1.005278   x
            x  O           19         0.645968   0.008478   0.494908   x
            x  O           20         0.145965   0.508475   0.494898   x
            x  O           21         0.645612   0.991513  -0.005268   x
            x  O           22         0.145609   0.491517  -0.005278   x
            x  O           23         0.354032   0.991522   0.505092   x
            x  O           24         0.854035   0.491525   0.505102   x
            x  Na           1        -0.000045   0.301215   0.250049   x
            x  Na           2         0.499955   0.801219   0.250049   x
            x  Na           3         0.000045   0.698785   0.749951   x
            x  Na           4         0.500045   0.198781   0.749951   x
            x  Al           1        -0.000079   0.906323   0.249927   x
            x  Al           2         0.499921   0.406324   0.249927   x
            x  Al           3         0.000079   0.093677   0.750073   x
            x  Al           4         0.500079   0.593676   0.750073   x
            x  Si           1         0.291459   0.093767   0.229269   x
            x  Si           2         0.791461   0.593766   0.229275   x
            x  Si           3         0.708441   0.093846   0.272363   x
            x  Si           4         0.208439   0.593845   0.272357   x
            x  Si           5         0.708541   0.906233   0.770731   x
            x  Si           6         0.208539   0.406234   0.770725   x
            x  Si           7         0.291559   0.906154   0.727637   x
            x  Si           8         0.791561   0.406155   0.727643   x
            xxxxxxxxxxxxxxxxxxxxxxxxxxxxxxxxxxxxxxxxxxxxxxxxxxxxxxxxxxxx
 
 
------------------------------------------------------------------------ <-- SCF
SCF loop      Energy                           Energy gain       Timer   <-- SCF
                                               per atom          (sec)   <-- SCF
------------------------------------------------------------------------ <-- SCF
Initial  -1.68457615E+004                                        283.77  <-- SCF
      1  -1.68459222E+004                    4.01718028E-003     302.11  <-- SCF
      2  -1.68459223E+004                    1.56642028E-006     320.55  <-- SCF
      3  -1.68459223E+004                    1.83037627E-008     338.70  <-- SCF
      4  -1.68459223E+004                    3.52667694E-010     356.84  <-- SCF
      5  -1.68459223E+004                    7.11522541E-012     377.33  <-- SCF
------------------------------------------------------------------------ <-- SCF
 
Final energy =  -16845.92228417     eV
(energy not corrected for finite basis set)
 
 
 *********************************** Forces ***********************************
 *                                                                            *
 *                        Cartesian components (eV/A)                         *
 * -------------------------------------------------------------------------- *
 *                   x                    y                    z              *
 *                                                                            *
 * O         1      0.02532              0.04103              0.02889         *
 * O         2      0.02516              0.04107              0.02885         *
 * O         3     -0.03428              0.02845             -0.00544         *
 * O         4     -0.03412              0.02850             -0.00541         *
 * O         5     -0.02532             -0.04103             -0.02889         *
 * O         6     -0.02516             -0.04107             -0.02885         *
 * O         7      0.03428             -0.02845              0.00544         *
 * O         8      0.03412             -0.02850              0.00541         *
 * O         9     -0.00264              0.03830              0.07638         *
 * O        10     -0.00260              0.03825              0.07639         *
 * O        11      0.03209              0.02857              0.01379         *
 * O        12      0.03205              0.02852              0.01378         *
 * O        13      0.00264             -0.03830             -0.07638         *
 * O        14      0.00260             -0.03825             -0.07639         *
 * O        15     -0.03209             -0.02857             -0.01379         *
 * O        16     -0.03205             -0.02852             -0.01378         *
 * O        17      0.16204              0.01766              0.02201         *
 * O        18      0.16193              0.01771              0.02197         *
 * O        19     -0.09568              0.00115              0.01815         *
 * O        20     -0.09558              0.00121              0.01821         *
 * O        21     -0.16204             -0.01766             -0.02201         *
 * O        22     -0.16193             -0.01771             -0.02197         *
 * O        23      0.09568             -0.00115             -0.01815         *
 * O        24      0.09558             -0.00121             -0.01821         *
 * Na        1     -0.03436             -0.04093              0.00945         *
 * Na        2     -0.03436             -0.04103              0.00945         *
 * Na        3      0.03436              0.04093             -0.00945         *
 * Na        4      0.03436              0.04103             -0.00945         *
 * Al        1     -0.04350              0.08394             -0.00675         *
 * Al        2     -0.04350              0.08398             -0.00675         *
 * Al        3      0.04350             -0.08394              0.00675         *
 * Al        4      0.04350             -0.08398              0.00675         *
 * Si        1     -0.04568              0.00694              0.05381         *
 * Si        2     -0.04575              0.00703              0.05380         *
 * Si        3      0.06333             -0.03054              0.04017         *
 * Si        4      0.06339             -0.03045              0.04018         *
 * Si        5      0.04568             -0.00694             -0.05381         *
 * Si        6      0.04575             -0.00703             -0.05380         *
 * Si        7     -0.06333              0.03054             -0.04017         *
 * Si        8     -0.06339              0.03045             -0.04018         *
 *                                                                            *
 ******************************************************************************
  
 +------------+-------------+-------------+-----------------+ <-- min BFGS
 |    Step    |   lambda    |   F.delta   |    enthalpy     | <-- min BFGS
 +------------+-------------+-------------+-----------------+ <-- min BFGS
 |  previous  |    0.000000 |    0.000571 |   -16835.246107 | <-- min BFGS
 | trial step |    1.000000 |    0.000393 |   -16835.259215 | <-- min BFGS
 |  line step |    3.217409 |    0.000007 |   -16835.271252 | <-- min BFGS
 +------------+-------------+-------------+-----------------+ <-- min BFGS
  
 BFGS: finished iteration     1 with enthalpy= -1.68352713E+004 eV
  
 +-----------+-----------------+-----------------+------------+-----+ <-- BFGS
 | Parameter |      value      |    tolerance    |    units   | OK? | <-- BFGS
 +-----------+-----------------+-----------------+------------+-----+ <-- BFGS
 |  dE/ion   |   6.286123E-004 |   2.000000E-007 |         eV | No  | <-- BFGS
 |  |F|max   |   1.644769E-001 |   1.000000E-003 |       eV/A | No  | <-- BFGS
 |  |dR|max  |   7.529327E-003 |   1.000000E-003 |          A | No  | <-- BFGS
 +-----------+-----------------+-----------------+------------+-----+ <-- BFGS
  

================================================================================
 Starting BFGS iteration          2 ...
================================================================================
 
Writing model to jadeite_4_30_GPa_cij__1__6.check
  
 +------------+-------------+-------------+-----------------+ <-- min BFGS
 |    Step    |   lambda    |   F.delta   |    enthalpy     | <-- min BFGS
 +------------+-------------+-------------+-----------------+ <-- min BFGS
 |  previous  |    0.000000 |    0.000055 |   -16835.271252 | <-- min BFGS
 +------------+-------------+-------------+-----------------+ <-- min BFGS
  

--------------------------------------------------------------------------------
 BFGS: starting iteration         2 with trial guess (lambda=  1.000000)
--------------------------------------------------------------------------------
 
                           -------------------------------
                                     Cell Contents
                           -------------------------------
 
            xxxxxxxxxxxxxxxxxxxxxxxxxxxxxxxxxxxxxxxxxxxxxxxxxxxxxxxxxxxx
            x  Element    Atom        Fractional coordinates of atoms  x
            x            Number           u          v          w      x
            x----------------------------------------------------------x
            x  O            1         0.108611   0.076975   0.128911   x
            x  O            2         0.608612   0.576974   0.128914   x
            x  O            3         0.891446   0.076917   0.371100   x
            x  O            4         0.391445   0.576916   0.371098   x
            x  O            5         0.891389   0.923025   0.871089   x
            x  O            6         0.391388   0.423026   0.871086   x
            x  O            7         0.108554   0.923083   0.628900   x
            x  O            8         0.608555   0.423084   0.628902   x
            x  O            9         0.361067   0.263960   0.295638   x
            x  O           10         0.861066   0.763961   0.295637   x
            x  O           11         0.639091   0.263721   0.204661   x
            x  O           12         0.139092   0.763722   0.204662   x
            x  O           13         0.638933   0.736040   0.704362   x
            x  O           14         0.138934   0.236039   0.704363   x
            x  O           15         0.360909   0.736279   0.795339   x
            x  O           16         0.860908   0.236278   0.795338   x
            x  O           17         0.354492   0.008498   1.005345   x
            x  O           18         0.854495   0.508494   1.005355   x
            x  O           19         0.645915   0.008479   0.494895   x
            x  O           20         0.145913   0.508476   0.494885   x
            x  O           21         0.645508   0.991502  -0.005345   x
            x  O           22         0.145505   0.491506  -0.005355   x
            x  O           23         0.354085   0.991521   0.505105   x
            x  O           24         0.854087   0.491524   0.505115   x
            x  Na           1        -0.000066   0.301191   0.250049   x
            x  Na           2         0.499934   0.801195   0.250049   x
            x  Na           3         0.000066   0.698809   0.749951   x
            x  Na           4         0.500066   0.198805   0.749951   x
            x  Al           1        -0.000106   0.906373   0.249906   x
            x  Al           2         0.499894   0.406373   0.249906   x
            x  Al           3         0.000106   0.093627   0.750094   x
            x  Al           4         0.500106   0.593627   0.750094   x
            x  Si           1         0.291457   0.093769   0.229351   x
            x  Si           2         0.791458   0.593768   0.229357   x
            x  Si           3         0.708449   0.093829   0.272437   x
            x  Si           4         0.208447   0.593828   0.272432   x
            x  Si           5         0.708543   0.906231   0.770649   x
            x  Si           6         0.208542   0.406232   0.770643   x
            x  Si           7         0.291551   0.906171   0.727563   x
            x  Si           8         0.791553   0.406172   0.727568   x
            xxxxxxxxxxxxxxxxxxxxxxxxxxxxxxxxxxxxxxxxxxxxxxxxxxxxxxxxxxxx
 
 
------------------------------------------------------------------------ <-- SCF
SCF loop      Energy                           Energy gain       Timer   <-- SCF
                                               per atom          (sec)   <-- SCF
------------------------------------------------------------------------ <-- SCF
Initial  -1.68459193E+004                                        387.07  <-- SCF
      1  -1.68459237E+004                    1.10005355E-004     406.68  <-- SCF
      2  -1.68459237E+004                    4.44761140E-008     426.15  <-- SCF
      3  -1.68459237E+004                    3.38205225E-010     445.66  <-- SCF
      4  -1.68459237E+004                    7.57926185E-012     467.37  <-- SCF
------------------------------------------------------------------------ <-- SCF
 
Final energy =  -16845.92367667     eV
(energy not corrected for finite basis set)
 
 
 *********************************** Forces ***********************************
 *                                                                            *
 *                        Cartesian components (eV/A)                         *
 * -------------------------------------------------------------------------- *
 *                   x                    y                    z              *
 *                                                                            *
 * O         1      0.02890              0.03840              0.02838         *
 * O         2      0.02877              0.03845              0.02835         *
 * O         3     -0.03693              0.02467             -0.00514         *
 * O         4     -0.03680              0.02472             -0.00510         *
 * O         5     -0.02890             -0.03840             -0.02838         *
 * O         6     -0.02877             -0.03845             -0.02835         *
 * O         7      0.03693             -0.02467              0.00514         *
 * O         8      0.03680             -0.02472              0.00510         *
 * O         9     -0.00631              0.03362              0.07516         *
 * O        10     -0.00627              0.03358              0.07518         *
 * O        11      0.03239              0.02626              0.01694         *
 * O        12      0.03235              0.02622              0.01693         *
 * O        13      0.00631             -0.03362             -0.07516         *
 * O        14      0.00627             -0.03358             -0.07518         *
 * O        15     -0.03239             -0.02626             -0.01694         *
 * O        16     -0.03235             -0.02622             -0.01693         *
 * O        17      0.14259              0.01713              0.02109         *
 * O        18      0.14248              0.01718              0.02104         *
 * O        19     -0.09116              0.00195              0.01525         *
 * O        20     -0.09105              0.00200              0.01530         *
 * O        21     -0.14259             -0.01713             -0.02109         *
 * O        22     -0.14248             -0.01718             -0.02104         *
 * O        23      0.09116             -0.00195             -0.01525         *
 * O        24      0.09105             -0.00200             -0.01530         *
 * Na        1     -0.03525             -0.03901              0.00806         *
 * Na        2     -0.03524             -0.03911              0.00805         *
 * Na        3      0.03525              0.03901             -0.00806         *
 * Na        4      0.03524              0.03911             -0.00805         *
 * Al        1     -0.04037              0.07469             -0.00651         *
 * Al        2     -0.04036              0.07472             -0.00651         *
 * Al        3      0.04037             -0.07469              0.00651         *
 * Al        4      0.04036             -0.07472              0.00651         *
 * Si        1     -0.03575              0.01005              0.03329         *
 * Si        2     -0.03582              0.01012              0.03327         *
 * Si        3      0.04996             -0.02733              0.01932         *
 * Si        4      0.05003             -0.02726              0.01933         *
 * Si        5      0.03575             -0.01005             -0.03329         *
 * Si        6      0.03582             -0.01012             -0.03327         *
 * Si        7     -0.04996              0.02733             -0.01932         *
 * Si        8     -0.05003              0.02726             -0.01933         *
 *                                                                            *
 ******************************************************************************
  
 +------------+-------------+-------------+-----------------+ <-- min BFGS
 |    Step    |   lambda    |   F.delta   |    enthalpy     | <-- min BFGS
 +------------+-------------+-------------+-----------------+ <-- min BFGS
 |  previous  |    0.000000 |    0.000055 |   -16835.271252 | <-- min BFGS
 | trial step |    1.000000 |    0.000048 |   -16835.272644 | <-- min BFGS
 +------------+-------------+-------------+-----------------+ <-- min BFGS
  

--------------------------------------------------------------------------------
 BFGS: improving iteration         2 with line minimization (lambda=  7.927171)
--------------------------------------------------------------------------------
 
                           -------------------------------
                                     Cell Contents
                           -------------------------------
 
            xxxxxxxxxxxxxxxxxxxxxxxxxxxxxxxxxxxxxxxxxxxxxxxxxxxxxxxxxxxx
            x  Element    Atom        Fractional coordinates of atoms  x
            x            Number           u          v          w      x
            x----------------------------------------------------------x
            x  O            1         0.108532   0.077138   0.129070   x
            x  O            2         0.608533   0.577137   0.129072   x
            x  O            3         0.891507   0.077016   0.371079   x
            x  O            4         0.391506   0.577015   0.371077   x
            x  O            5         0.891468   0.922862   0.870930   x
            x  O            6         0.391467   0.422863   0.870928   x
            x  O            7         0.108493   0.922984   0.628921   x
            x  O            8         0.608494   0.422985   0.628923   x
            x  O            9         0.361062   0.264161   0.296180   x
            x  O           10         0.861061   0.764162   0.296179   x
            x  O           11         0.639245   0.263824   0.204825   x
            x  O           12         0.139245   0.763824   0.204826   x
            x  O           13         0.638938   0.735839   0.703820   x
            x  O           14         0.138939   0.235838   0.703821   x
            x  O           15         0.360755   0.736176   0.795175   x
            x  O           16         0.860755   0.236176   0.795174   x
            x  O           17         0.355207   0.008572   1.005882   x
            x  O           18         0.855210   0.508569   1.005891   x
            x  O           19         0.645549   0.008486   0.494806   x
            x  O           20         0.145547   0.508483   0.494797   x
            x  O           21         0.644793   0.991428  -0.005882   x
            x  O           22         0.144790   0.491431  -0.005891   x
            x  O           23         0.354451   0.991514   0.505194   x
            x  O           24         0.854453   0.491517   0.505203   x
            x  Na           1        -0.000209   0.301025   0.250050   x
            x  Na           2         0.499791   0.801029   0.250050   x
            x  Na           3         0.000209   0.698975   0.749950   x
            x  Na           4         0.500209   0.198971   0.749950   x
            x  Al           1        -0.000293   0.906719   0.249758   x
            x  Al           2         0.499707   0.406719   0.249758   x
            x  Al           3         0.000293   0.093281   0.750242   x
            x  Al           4         0.500293   0.593281   0.750242   x
            x  Si           1         0.291440   0.093781   0.229920   x
            x  Si           2         0.791442   0.593781   0.229925   x
            x  Si           3         0.708506   0.093714   0.272952   x
            x  Si           4         0.208505   0.593713   0.272946   x
            x  Si           5         0.708560   0.906219   0.770080   x
            x  Si           6         0.208558   0.406219   0.770075   x
            x  Si           7         0.291494   0.906286   0.727048   x
            x  Si           8         0.791495   0.406287   0.727054   x
            xxxxxxxxxxxxxxxxxxxxxxxxxxxxxxxxxxxxxxxxxxxxxxxxxxxxxxxxxxxx
 
 
------------------------------------------------------------------------ <-- SCF
SCF loop      Energy                           Energy gain       Timer   <-- SCF
                                               per atom          (sec)   <-- SCF
------------------------------------------------------------------------ <-- SCF
Initial  -1.68457786E+004                                        476.06  <-- SCF
      1  -1.68459281E+004                    3.73775231E-003     495.54  <-- SCF
      2  -1.68459282E+004                    1.45337597E-006     515.10  <-- SCF
      3  -1.68459282E+004                    1.04372623E-008     534.42  <-- SCF
      4  -1.68459282E+004                    2.15235569E-010     553.54  <-- SCF
      5  -1.68459282E+004                    5.72311609E-012     575.04  <-- SCF
------------------------------------------------------------------------ <-- SCF
 
Final energy =  -16845.92819015     eV
(energy not corrected for finite basis set)
 
 
 *********************************** Forces ***********************************
 *                                                                            *
 *                        Cartesian components (eV/A)                         *
 * -------------------------------------------------------------------------- *
 *                   x                    y                    z              *
 *                                                                            *
 * O         1      0.05370              0.02023              0.02489         *
 * O         2      0.05372              0.02031              0.02489         *
 * O         3     -0.05538             -0.00134             -0.00287         *
 * O         4     -0.05540             -0.00126             -0.00286         *
 * O         5     -0.05370             -0.02023             -0.02489         *
 * O         6     -0.05372             -0.02031             -0.02489         *
 * O         7      0.05538              0.00134              0.00287         *
 * O         8      0.05540              0.00126              0.00286         *
 * O         9     -0.03162              0.00146              0.06679         *
 * O        10     -0.03157              0.00149              0.06681         *
 * O        11      0.03453              0.01024              0.03862         *
 * O        12      0.03448              0.01028              0.03859         *
 * O        13      0.03162             -0.00146             -0.06679         *
 * O        14      0.03157             -0.00149             -0.06681         *
 * O        15     -0.03453             -0.01024             -0.03862         *
 * O        16     -0.03448             -0.01028             -0.03859         *
 * O        17      0.00808              0.01395              0.01512         *
 * O        18      0.00795              0.01399              0.01507         *
 * O        19     -0.06000              0.00755             -0.00495         *
 * O        20     -0.05988              0.00758             -0.00490         *
 * O        21     -0.00808             -0.01395             -0.01512         *
 * O        22     -0.00795             -0.01399             -0.01507         *
 * O        23      0.06000             -0.00755              0.00495         *
 * O        24      0.05988             -0.00758              0.00490         *
 * Na        1     -0.04139             -0.02576             -0.00158         *
 * Na        2     -0.04139             -0.02586             -0.00158         *
 * Na        3      0.04139              0.02576              0.00158         *
 * Na        4      0.04139              0.02586              0.00158         *
 * Al        1     -0.01883              0.01088             -0.00472         *
 * Al        2     -0.01883              0.01087             -0.00472         *
 * Al        3      0.01883             -0.01088              0.00472         *
 * Al        4      0.01883             -0.01087              0.00472         *
 * Si        1      0.03280              0.03199             -0.10805         *
 * Si        2      0.03267              0.03190             -0.10808         *
 * Si        3     -0.04200             -0.00440             -0.12358         *
 * Si        4     -0.04187             -0.00447             -0.12355         *
 * Si        5     -0.03280             -0.03199              0.10805         *
 * Si        6     -0.03267             -0.03190              0.10808         *
 * Si        7      0.04200              0.00440              0.12358         *
 * Si        8      0.04187              0.00447              0.12355         *
 *                                                                            *
 ******************************************************************************
  
 +------------+-------------+-------------+-----------------+ <-- min BFGS
 |    Step    |   lambda    |   F.delta   |    enthalpy     | <-- min BFGS
 +------------+-------------+-------------+-----------------+ <-- min BFGS
 |  previous  |    0.000000 |    0.000055 |   -16835.271252 | <-- min BFGS
 | trial step |    1.000000 |    0.000048 |   -16835.272644 | <-- min BFGS
 |  line step |    7.927171 |    0.000000 |   -16835.277158 | <-- min BFGS
 +------------+-------------+-------------+-----------------+ <-- min BFGS
  
 BFGS: finished iteration     2 with enthalpy= -1.68352772E+004 eV
  
 +-----------+-----------------+-----------------+------------+-----+ <-- BFGS
 | Parameter |      value      |    tolerance    |    units   | OK? | <-- BFGS
 +-----------+-----------------+-----------------+------------+-----+ <-- BFGS
 |  dE/ion   |   1.476494E-004 |   2.000000E-007 |         eV | No  | <-- BFGS
 |  |F|max   |   1.305956E-001 |   1.000000E-003 |       eV/A | No  | <-- BFGS
 |  |dR|max  |   7.361716E-003 |   1.000000E-003 |          A | No  | <-- BFGS
 +-----------+-----------------+-----------------+------------+-----+ <-- BFGS
  

================================================================================
 Starting BFGS iteration          3 ...
================================================================================
 
Writing model to jadeite_4_30_GPa_cij__1__6.check
  
 +------------+-------------+-------------+-----------------+ <-- min BFGS
 |    Step    |   lambda    |   F.delta   |    enthalpy     | <-- min BFGS
 +------------+-------------+-------------+-----------------+ <-- min BFGS
 |  previous  |    0.000000 |    0.000048 |   -16835.277158 | <-- min BFGS
 +------------+-------------+-------------+-----------------+ <-- min BFGS
  

--------------------------------------------------------------------------------
 BFGS: starting iteration         3 with trial guess (lambda=  1.000000)
--------------------------------------------------------------------------------
 
                           -------------------------------
                                     Cell Contents
                           -------------------------------
 
            xxxxxxxxxxxxxxxxxxxxxxxxxxxxxxxxxxxxxxxxxxxxxxxxxxxxxxxxxxxx
            x  Element    Atom        Fractional coordinates of atoms  x
            x            Number           u          v          w      x
            x----------------------------------------------------------x
            x  O            1         0.108590   0.077168   0.129146   x
            x  O            2         0.608591   0.577167   0.129148   x
            x  O            3         0.891442   0.077030   0.371039   x
            x  O            4         0.391441   0.577029   0.371037   x
            x  O            5         0.891410   0.922832   0.870854   x
            x  O            6         0.391409   0.422833   0.870852   x
            x  O            7         0.108558   0.922970   0.628961   x
            x  O            8         0.608559   0.422971   0.628963   x
            x  O            9         0.361043   0.264175   0.296285   x
            x  O           10         0.861043   0.764175   0.296285   x
            x  O           11         0.639275   0.263844   0.204889   x
            x  O           12         0.139275   0.763845   0.204890   x
            x  O           13         0.638957   0.735825   0.703715   x
            x  O           14         0.138957   0.235825   0.703715   x
            x  O           15         0.360725   0.736156   0.795111   x
            x  O           16         0.860725   0.236155   0.795110   x
            x  O           17         0.355275   0.008588   1.005949   x
            x  O           18         0.855277   0.508585   1.005958   x
            x  O           19         0.645474   0.008490   0.494775   x
            x  O           20         0.145471   0.508487   0.494766   x
            x  O           21         0.644725   0.991412  -0.005949   x
            x  O           22         0.144723   0.491415  -0.005958   x
            x  O           23         0.354526   0.991510   0.505225   x
            x  O           24         0.854529   0.491513   0.505234   x
            x  Na           1        -0.000246   0.300992   0.250033   x
            x  Na           2         0.499754   0.800995   0.250033   x
            x  Na           3         0.000246   0.699008   0.749967   x
            x  Na           4         0.500246   0.199005   0.749967   x
            x  Al           1        -0.000321   0.906762   0.249736   x
            x  Al           2         0.499679   0.406763   0.249736   x
            x  Al           3         0.000321   0.093238   0.750264   x
            x  Al           4         0.500321   0.593237   0.750264   x
            x  Si           1         0.291422   0.093804   0.229828   x
            x  Si           2         0.791423   0.593804   0.229834   x
            x  Si           3         0.708530   0.093697   0.272857   x
            x  Si           4         0.208529   0.593696   0.272852   x
            x  Si           5         0.708578   0.906196   0.770172   x
            x  Si           6         0.208577   0.406196   0.770166   x
            x  Si           7         0.291470   0.906303   0.727143   x
            x  Si           8         0.791471   0.406304   0.727148   x
            xxxxxxxxxxxxxxxxxxxxxxxxxxxxxxxxxxxxxxxxxxxxxxxxxxxxxxxxxxxx
 
 
------------------------------------------------------------------------ <-- SCF
SCF loop      Energy                           Energy gain       Timer   <-- SCF
                                               per atom          (sec)   <-- SCF
------------------------------------------------------------------------ <-- SCF
Initial  -1.68459231E+004                                        584.98  <-- SCF
      1  -1.68459293E+004                    1.53478719E-004     604.39  <-- SCF
      2  -1.68459293E+004                    6.01040105E-008     623.66  <-- SCF
      3  -1.68459293E+004                    4.61252221E-010     644.50  <-- SCF
      4  -1.68459293E+004                    1.02088017E-011     667.43  <-- SCF
------------------------------------------------------------------------ <-- SCF
 
Final energy =  -16845.92926899     eV
(energy not corrected for finite basis set)
 
 
 *********************************** Forces ***********************************
 *                                                                            *
 *                        Cartesian components (eV/A)                         *
 * -------------------------------------------------------------------------- *
 *                   x                    y                    z              *
 *                                                                            *
 * O         1      0.02634              0.01433              0.01833         *
 * O         2      0.02635              0.01440              0.01832         *
 * O         3     -0.02614             -0.00977             -0.00669         *
 * O         4     -0.02615             -0.00970             -0.00668         *
 * O         5     -0.02634             -0.01433             -0.01833         *
 * O         6     -0.02635             -0.01440             -0.01832         *
 * O         7      0.02614              0.00977              0.00669         *
 * O         8      0.02615              0.00970              0.00668         *
 * O         9     -0.02878              0.00971              0.05841         *
 * O        10     -0.02874              0.00972              0.05844         *
 * O        11      0.03119              0.00913              0.03382         *
 * O        12      0.03115              0.00914              0.03379         *
 * O        13      0.02878             -0.00971             -0.05841         *
 * O        14      0.02874             -0.00972             -0.05844         *
 * O        15     -0.03119             -0.00913             -0.03382         *
 * O        16     -0.03115             -0.00914             -0.03379         *
 * O        17      0.00228              0.01276              0.01055         *
 * O        18      0.00216              0.01279              0.01050         *
 * O        19     -0.04263              0.00720             -0.00985         *
 * O        20     -0.04251              0.00724             -0.00980         *
 * O        21     -0.00228             -0.01276             -0.01055         *
 * O        22     -0.00216             -0.01279             -0.01050         *
 * O        23      0.04263             -0.00720              0.00985         *
 * O        24      0.04251             -0.00724              0.00980         *
 * Na        1     -0.04020             -0.02183              0.00068         *
 * Na        2     -0.04019             -0.02192              0.00068         *
 * Na        3      0.04020              0.02183             -0.00068         *
 * Na        4      0.04019              0.02192             -0.00068         *
 * Al        1     -0.01369             -0.00046             -0.00280         *
 * Al        2     -0.01368             -0.00047             -0.00280         *
 * Al        3      0.01369              0.00046              0.00280         *
 * Al        4      0.01368              0.00047              0.00280         *
 * Si        1      0.06298              0.02352             -0.07793         *
 * Si        2      0.06287              0.02345             -0.07796         *
 * Si        3     -0.07732             -0.00355             -0.09420         *
 * Si        4     -0.07722             -0.00361             -0.09417         *
 * Si        5     -0.06298             -0.02352              0.07793         *
 * Si        6     -0.06287             -0.02345              0.07796         *
 * Si        7      0.07732              0.00355              0.09420         *
 * Si        8      0.07722              0.00361              0.09417         *
 *                                                                            *
 ******************************************************************************
  
 +------------+-------------+-------------+-----------------+ <-- min BFGS
 |    Step    |   lambda    |   F.delta   |    enthalpy     | <-- min BFGS
 +------------+-------------+-------------+-----------------+ <-- min BFGS
 |  previous  |    0.000000 |    0.000048 |   -16835.277158 | <-- min BFGS
 | trial step |    1.000000 |    0.000032 |   -16835.278236 | <-- min BFGS
 +------------+-------------+-------------+-----------------+ <-- min BFGS
  

--------------------------------------------------------------------------------
 BFGS: improving iteration         3 with line minimization (lambda=  2.984770)
--------------------------------------------------------------------------------
 
                           -------------------------------
                                     Cell Contents
                           -------------------------------
 
            xxxxxxxxxxxxxxxxxxxxxxxxxxxxxxxxxxxxxxxxxxxxxxxxxxxxxxxxxxxx
            x  Element    Atom        Fractional coordinates of atoms  x
            x            Number           u          v          w      x
            x----------------------------------------------------------x
            x  O            1         0.108706   0.077229   0.129298   x
            x  O            2         0.608706   0.577228   0.129299   x
            x  O            3         0.891314   0.077058   0.370961   x
            x  O            4         0.391313   0.577057   0.370959   x
            x  O            5         0.891294   0.922771   0.870702   x
            x  O            6         0.391294   0.422772   0.870701   x
            x  O            7         0.108686   0.922942   0.629039   x
            x  O            8         0.608687   0.422943   0.629041   x
            x  O            9         0.361005   0.264202   0.296495   x
            x  O           10         0.861005   0.764203   0.296495   x
            x  O           11         0.639335   0.263884   0.205017   x
            x  O           12         0.139335   0.763884   0.205017   x
            x  O           13         0.638995   0.735798   0.703505   x
            x  O           14         0.138995   0.235797   0.703505   x
            x  O           15         0.360665   0.736116   0.794983   x
            x  O           16         0.860665   0.236116   0.794983   x
            x  O           17         0.355408   0.008619   1.006082   x
            x  O           18         0.855410   0.508616   1.006091   x
            x  O           19         0.645324   0.008500   0.494714   x
            x  O           20         0.145322   0.508497   0.494705   x
            x  O           21         0.644592   0.991381  -0.006082   x
            x  O           22         0.144590   0.491384  -0.006091   x
            x  O           23         0.354676   0.991500   0.505286   x
            x  O           24         0.854678   0.491503   0.505295   x
            x  Na           1        -0.000319   0.300926   0.249999   x
            x  Na           2         0.499681   0.800929   0.249999   x
            x  Na           3         0.000319   0.699074   0.750001   x
            x  Na           4         0.500319   0.199071   0.750001   x
            x  Al           1        -0.000376   0.906849   0.249690   x
            x  Al           2         0.499624   0.406850   0.249690   x
            x  Al           3         0.000376   0.093151   0.750310   x
            x  Al           4         0.500376   0.593150   0.750310   x
            x  Si           1         0.291386   0.093850   0.229646   x
            x  Si           2         0.791387   0.593849   0.229651   x
            x  Si           3         0.708577   0.093662   0.272670   x
            x  Si           4         0.208576   0.593662   0.272665   x
            x  Si           5         0.708614   0.906150   0.770354   x
            x  Si           6         0.208613   0.406151   0.770349   x
            x  Si           7         0.291423   0.906338   0.727330   x
            x  Si           8         0.791424   0.406338   0.727335   x
            xxxxxxxxxxxxxxxxxxxxxxxxxxxxxxxxxxxxxxxxxxxxxxxxxxxxxxxxxxxx
 
 
------------------------------------------------------------------------ <-- SCF
SCF loop      Energy                           Energy gain       Timer   <-- SCF
                                               per atom          (sec)   <-- SCF
------------------------------------------------------------------------ <-- SCF
Initial  -1.68459097E+004                                        676.06  <-- SCF
      1  -1.68459301E+004                    5.10227408E-004     695.55  <-- SCF
      2  -1.68459301E+004                    2.09981284E-007     715.05  <-- SCF
      3  -1.68459301E+004                    1.64315303E-009     734.45  <-- SCF
      4  -1.68459301E+004                    3.55761271E-011     754.58  <-- SCF
------------------------------------------------------------------------ <-- SCF
 
Final energy =  -16845.93012395     eV
(energy not corrected for finite basis set)
 
 
 *********************************** Forces ***********************************
 *                                                                            *
 *                        Cartesian components (eV/A)                         *
 * -------------------------------------------------------------------------- *
 *                   x                    y                    z              *
 *                                                                            *
 * O         1     -0.02815              0.00261              0.00535         *
 * O         2     -0.02816              0.00267              0.00535         *
 * O         3      0.03220             -0.02650             -0.01423         *
 * O         4      0.03220             -0.02643             -0.01423         *
 * O         5      0.02815             -0.00261             -0.00535         *
 * O         6      0.02816             -0.00267             -0.00535         *
 * O         7     -0.03220              0.02650              0.01423         *
 * O         8     -0.03220              0.02643              0.01423         *
 * O         9     -0.02317              0.02601              0.04178         *
 * O        10     -0.02315              0.02599              0.04180         *
 * O        11      0.02455              0.00688              0.02425         *
 * O        12      0.02453              0.00687              0.02423         *
 * O        13      0.02317             -0.02601             -0.04178         *
 * O        14      0.02315             -0.02599             -0.04180         *
 * O        15     -0.02455             -0.00688             -0.02425         *
 * O        16     -0.02453             -0.00687             -0.02423         *
 * O        17     -0.00923              0.01038              0.00146         *
 * O        18     -0.00934              0.01041              0.00141         *
 * O        19     -0.00820              0.00650             -0.01956         *
 * O        20     -0.00808              0.00654             -0.01951         *
 * O        21      0.00923             -0.01038             -0.00146         *
 * O        22      0.00934             -0.01041             -0.00141         *
 * O        23      0.00820             -0.00650              0.01956         *
 * O        24      0.00808             -0.00654              0.01951         *
 * Na        1     -0.03782             -0.01400              0.00517         *
 * Na        2     -0.03781             -0.01408              0.00517         *
 * Na        3      0.03782              0.01400             -0.00517         *
 * Na        4      0.03781              0.01408             -0.00517         *
 * Al        1     -0.00349             -0.02294              0.00102         *
 * Al        2     -0.00348             -0.02297              0.00102         *
 * Al        3      0.00349              0.02294             -0.00102         *
 * Al        4      0.00348              0.02297             -0.00102         *
 * Si        1      0.12308              0.00686             -0.01838         *
 * Si        2      0.12303              0.00685             -0.01840         *
 * Si        3     -0.14772             -0.00175             -0.03612         *
 * Si        4     -0.14766             -0.00177             -0.03609         *
 * Si        5     -0.12308             -0.00686              0.01838         *
 * Si        6     -0.12303             -0.00685              0.01840         *
 * Si        7      0.14772              0.00175              0.03612         *
 * Si        8      0.14766              0.00177              0.03609         *
 *                                                                            *
 ******************************************************************************
  
 +------------+-------------+-------------+-----------------+ <-- min BFGS
 |    Step    |   lambda    |   F.delta   |    enthalpy     | <-- min BFGS
 +------------+-------------+-------------+-----------------+ <-- min BFGS
 |  previous  |    0.000000 |    0.000048 |   -16835.277158 | <-- min BFGS
 | trial step |    1.000000 |    0.000032 |   -16835.278236 | <-- min BFGS
 |  line step |    2.984770 |    0.000000 |   -16835.279091 | <-- min BFGS
 +------------+-------------+-------------+-----------------+ <-- min BFGS
  
 BFGS: finished iteration     3 with enthalpy= -1.68352791E+004 eV
  
 +-----------+-----------------+-----------------+------------+-----+ <-- BFGS
 | Parameter |      value      |    tolerance    |    units   | OK? | <-- BFGS
 +-----------+-----------------+-----------------+------------+-----+ <-- BFGS
 |  dE/ion   |   4.834513E-005 |   2.000000E-007 |         eV | No  | <-- BFGS
 |  |F|max   |   1.520827E-001 |   1.000000E-003 |       eV/A | No  | <-- BFGS
 |  |dR|max  |   2.011124E-003 |   1.000000E-003 |          A | No  | <-- BFGS
[...]
            x  O           20         0.144395   0.507923   0.493337   x
            x  O           21         0.643852   0.990784  -0.007692   x
            x  O           22         0.143852   0.490784  -0.007692   x
            x  O           23         0.355605   0.992077   0.506663   x
            x  O           24         0.855605   0.492077   0.506663   x
            x  Na           1        -0.002936   0.299689   0.250633   x
            x  Na           2         0.497064   0.799689   0.250633   x
            x  Na           3         0.002936   0.700311   0.749367   x
            x  Na           4         0.502936   0.200311   0.749367   x
            x  Al           1        -0.000349   0.906958   0.249775   x
            x  Al           2         0.499651   0.406958   0.249775   x
            x  Al           3         0.000349   0.093042   0.750225   x
            x  Al           4         0.500349   0.593042   0.750225   x
            x  Si           1         0.292042   0.094428   0.231115   x
            x  Si           2         0.792042   0.594428   0.231115   x
            x  Si           3         0.707416   0.092836   0.271109   x
            x  Si           4         0.207415   0.592837   0.271109   x
            x  Si           5         0.707958   0.905572   0.768885   x
            x  Si           6         0.207958   0.405572   0.768885   x
            x  Si           7         0.292584   0.907164   0.728891   x
            x  Si           8         0.792585   0.407163   0.728891   x
            xxxxxxxxxxxxxxxxxxxxxxxxxxxxxxxxxxxxxxxxxxxxxxxxxxxxxxxxxxxx
 
 
 BFGS: Final Enthalpy     = -1.68352871E+004 eV
 BFGS: Final <frequency>  =     981.38596 cm-1
 
 ***************************** Symmetrised Forces *****************************
 *                                                                            *
 *                        Cartesian components (eV/A)                         *
 * -------------------------------------------------------------------------- *
 *                   x                    y                    z              *
 *                                                                            *
 * O         1      0.00018             -0.00010              0.00017         *
 * O         2      0.00021             -0.00009              0.00017         *
 * O         3      0.00015              0.00007              0.00037         *
 * O         4      0.00013              0.00008              0.00037         *
 * O         5     -0.00018              0.00010             -0.00017         *
 * O         6     -0.00021              0.00009             -0.00017         *
 * O         7     -0.00015             -0.00007             -0.00037         *
 * O         8     -0.00013             -0.00008             -0.00037         *
 * O         9     -0.00004              0.00008             -0.00040         *
 * O        10     -0.00002              0.00011             -0.00040         *
 * O        11      0.00045              0.00015              0.00019         *
 * O        12      0.00042              0.00021              0.00019         *
 * O        13      0.00004             -0.00008              0.00040         *
 * O        14      0.00002             -0.00011              0.00040         *
 * O        15     -0.00045             -0.00015             -0.00019         *
 * O        16     -0.00042             -0.00021             -0.00019         *
 * O        17     -0.00020             -0.00025             -0.00036         *
 * O        18     -0.00019             -0.00025             -0.00036         *
 * O        19      0.00018             -0.00003             -0.00011         *
 * O        20      0.00017             -0.00003             -0.00011         *
 * O        21      0.00020              0.00025              0.00036         *
 * O        22      0.00019              0.00025              0.00036         *
 * O        23     -0.00018              0.00003              0.00011         *
 * O        24     -0.00017              0.00003              0.00011         *
 * Na        1     -0.00021             -0.00063             -0.00025         *
 * Na        2     -0.00021             -0.00064             -0.00025         *
 * Na        3      0.00021              0.00063              0.00025         *
 * Na        4      0.00021              0.00064              0.00025         *
 * Al        1     -0.00020              0.00016              0.00038         *
 * Al        2     -0.00020              0.00017              0.00038         *
 * Al        3      0.00020             -0.00016             -0.00038         *
 * Al        4      0.00020             -0.00017             -0.00038         *
 * Si        1     -0.00014              0.00036             -0.00007         *
 * Si        2     -0.00019              0.00032             -0.00008         *
 * Si        3     -0.00011             -0.00002              0.00029         *
 * Si        4     -0.00006             -0.00008              0.00030         *
 * Si        5      0.00014             -0.00036              0.00007         *
 * Si        6      0.00019             -0.00032              0.00008         *
 * Si        7      0.00011              0.00002             -0.00029         *
 * Si        8      0.00006              0.00008             -0.00030         *
 *                                                                            *
 ******************************************************************************
 
 *********** Symmetrised Stress Tensor ***********
 *                                               *
 *          Cartesian components (GPa)           *
 * --------------------------------------------- *
 *             x             y             z     *
 *                                               *
 *  x     -7.180777     -0.136159     -0.020840  *
 *  y     -0.136159     -5.128777     -1.011174  *
 *  z     -0.020840     -1.011174     -4.901174  *
 *                                               *
 *  Pressure:    5.7369                          *
 *                                               *
 *************************************************
 
 Pseudo atomic calculation performed for O 2s2 2p4
 
 Converged in 36 iterations to a total energy of -429.6485 eV
 
 
 Pseudo atomic calculation performed for Na 2s2 2p6 3s1
 
 Converged in 33 iterations to a total energy of -1302.8467 eV
 
 
 Pseudo atomic calculation performed for Al 3s2 3p1
 
 Converged in 20 iterations to a total energy of -52.7392 eV
 
 
 Pseudo atomic calculation performed for Si 3s2 3p2
 
 Converged in 21 iterations to a total energy of -101.9044 eV
 
Charge spilling parameter for spin component 1 = 0.85%
 
     Atomic Populations (Mulliken)
     -----------------------------
Species   Ion     s      p      d      f     Total  Charge (e)
==============================================================
  O        1     1.85   5.24   0.00   0.00   7.09    -1.09
  O        2     1.85   5.24   0.00   0.00   7.09    -1.09
  O        3     1.84   5.24   0.00   0.00   7.09    -1.09
  O        4     1.84   5.24   0.00   0.00   7.09    -1.09
  O        5     1.85   5.24   0.00   0.00   7.09    -1.09
  O        6     1.85   5.24   0.00   0.00   7.09    -1.09
  O        7     1.84   5.24   0.00   0.00   7.09    -1.09
  O        8     1.84   5.24   0.00   0.00   7.09    -1.09
  O        9     1.84   5.29   0.00   0.00   7.12    -1.12
  O       10     1.84   5.29   0.00   0.00   7.12    -1.12
  O       11     1.84   5.29   0.00   0.00   7.12    -1.12
  O       12     1.84   5.29   0.00   0.00   7.12    -1.12
  O       13     1.84   5.29   0.00   0.00   7.12    -1.12
  O       14     1.84   5.29   0.00   0.00   7.12    -1.12
  O       15     1.84   5.29   0.00   0.00   7.12    -1.12
  O       16     1.84   5.29   0.00   0.00   7.12    -1.12
  O       17     1.83   5.30   0.00   0.00   7.12    -1.12
  O       18     1.83   5.30   0.00   0.00   7.12    -1.12
  O       19     1.83   5.30   0.00   0.00   7.12    -1.12
  O       20     1.83   5.30   0.00   0.00   7.12    -1.12
  O       21     1.83   5.30   0.00   0.00   7.12    -1.12
  O       22     1.83   5.30   0.00   0.00   7.12    -1.12
  O       23     1.83   5.30   0.00   0.00   7.12    -1.12
  O       24     1.83   5.30   0.00   0.00   7.12    -1.12
  Na       1     2.04   5.77   0.00   0.00   7.81     1.19
  Na       2     2.04   5.77   0.00   0.00   7.81     1.19
  Na       3     2.04   5.77   0.00   0.00   7.81     1.19
  Na       4     2.04   5.77   0.00   0.00   7.81     1.19
  Al       1     0.51   0.92   0.00   0.00   1.42     1.58
  Al       2     0.51   0.92   0.00   0.00   1.42     1.58
  Al       3     0.51   0.92   0.00   0.00   1.42     1.58
  Al       4     0.51   0.92   0.00   0.00   1.42     1.58
  Si       1     0.69   1.36   0.00   0.00   2.05     1.95
  Si       2     0.69   1.36   0.00   0.00   2.05     1.95
  Si       3     0.69   1.36   0.00   0.00   2.05     1.95
  Si       4     0.69   1.36   0.00   0.00   2.05     1.95
  Si       5     0.69   1.36   0.00   0.00   2.05     1.95
  Si       6     0.69   1.36   0.00   0.00   2.05     1.95
  Si       7     0.69   1.36   0.00   0.00   2.05     1.95
  Si       8     0.69   1.36   0.00   0.00   2.05     1.95
==============================================================
 
     Bond                     Population      Length (A)
============================================================
   O 010 --   Si 002               0.77        1.58915
   O 014 --   Si 006               0.77        1.58915
   O 013 --   Si 005               0.77        1.58915
   O 009 --   Si 001               0.77        1.58915
   O 012 --   Si 004               0.77        1.59121
   O 016 --   Si 008               0.77        1.59121
   O 011 --   Si 003               0.77        1.59122
   O 015 --   Si 007               0.77        1.59122
   O 017 --   Si 001               0.57        1.62770
   O 021 --   Si 005               0.57        1.62770
   O 018 --   Si 002               0.57        1.62770
   O 022 --   Si 006               0.57        1.62770
   O 023 --   Si 007               0.57        1.62957
   O 019 --   Si 003               0.57        1.62957
   O 024 --   Si 008               0.57        1.62957
   O 020 --   Si 004               0.57        1.62957
   O 005 --   Si 005               0.60        1.63169
   O 001 --   Si 001               0.60        1.63169
   O 002 --   Si 002               0.60        1.63169
   O 006 --   Si 006               0.60        1.63169
   O 007 --   Si 007               0.60        1.63226
   O 003 --   Si 003               0.60        1.63226
   O 008 --   Si 008               0.60        1.63226
   O 004 --   Si 004               0.60        1.63226
   O 017 --   Si 007               0.59        1.63793
   O 021 --   Si 003               0.59        1.63793
   O 018 --   Si 008               0.59        1.63793
   O 022 --   Si 004               0.59        1.63793
   O 020 --   Si 006               0.58        1.64197
   O 024 --   Si 002               0.58        1.64197
   O 019 --   Si 005               0.58        1.64197
   O 023 --   Si 001               0.58        1.64197
   O 011 --   Al 002               0.42        1.84907
   O 015 --   Al 004               0.42        1.84907
   O 016 --   Al 003               0.42        1.84908
   O 012 --   Al 001               0.42        1.84908
   O 013 --   Al 004               0.42        1.85198
   O 009 --   Al 002               0.42        1.85198
   O 014 --   Al 003               0.42        1.85198
   O 010 --   Al 001               0.42        1.85198
   O 002 --   Al 004               0.33        1.93804
   O 006 --   Al 002               0.33        1.93804
   O 005 --   Al 001               0.33        1.93804
   O 001 --   Al 003               0.33        1.93804
   O 007 --   Al 001               0.32        1.93969
   O 003 --   Al 003               0.32        1.93969
   O 008 --   Al 002               0.32        1.93969
   O 004 --   Al 004               0.32        1.93969
   O 004 --   Al 002               0.32        1.97212
   O 008 --   Al 004               0.32        1.97212
   O 007 --   Al 003               0.32        1.97212
   O 003 --   Al 001               0.32        1.97212
   O 006 --   Al 004               0.31        1.99482
   O 002 --   Al 002               0.31        1.99482
   O 001 --   Al 001               0.31        1.99482
   O 005 --   Al 003               0.31        1.99482
   O 003 --   Na 001              -0.02        2.33532
   O 007 --   Na 003              -0.02        2.33532
   O 008 --   Na 004              -0.02        2.33532
   O 004 --   Na 002              -0.02        2.33532
   O 001 --   Na 001              -0.02        2.33894
   O 005 --   Na 003              -0.02        2.33894
   O 006 --   Na 004              -0.02        2.33894
   O 002 --   Na 002              -0.02        2.33894
   O 022 --   Na 003              -0.04        2.36141
   O 018 --   Na 001              -0.04        2.36141
   O 021 --   Na 004              -0.04        2.36141
   O 017 --   Na 002              -0.04        2.36141
   O 019 --   Na 002              -0.04        2.36164
   O 023 --   Na 004              -0.04        2.36164
   O 024 --   Na 003              -0.04        2.36164
   O 020 --   Na 001              -0.04        2.36164
   O 015 --   Na 002              -0.06        2.38983
   O 011 --   Na 004              -0.06        2.38983
   O 016 --   Na 001              -0.06        2.38983
   O 012 --   Na 003              -0.06        2.38983
   O 014 --   Na 001              -0.05        2.39483
   O 010 --   Na 003              -0.05        2.39483
   O 013 --   Na 002              -0.05        2.39483
   O 009 --   Na 004              -0.05        2.39483
   O 002 --    O 006              -0.11        2.45473
   O 001 --    O 005              -0.11        2.45473
   O 004 --    O 008              -0.11        2.45943
   O 003 --    O 007              -0.11        2.45943
   O 016 --    O 018              -0.10        2.58090
   O 012 --    O 022              -0.10        2.58090
   O 015 --    O 017              -0.10        2.58090
   O 011 --    O 021              -0.10        2.58090
   O 014 --    O 020              -0.10        2.59552
   O 010 --    O 024              -0.10        2.59552
   O 013 --    O 019              -0.10        2.59552
   O 009 --    O 023              -0.10        2.59552
   O 019 --    O 021              -0.17        2.61197
   O 017 --    O 023              -0.17        2.61197
   O 020 --    O 022              -0.17        2.61197
   O 018 --    O 024              -0.17        2.61197
   O 005 --    O 021              -0.09        2.63096
   O 001 --    O 017              -0.09        2.63096
   O 002 --    O 018              -0.09        2.63097
   O 006 --    O 022              -0.09        2.63097
   O 007 --    O 023              -0.09        2.63229
   O 003 --    O 019              -0.09        2.63229
   O 008 --    O 024              -0.09        2.63229
   O 004 --    O 020              -0.09        2.63229
   O 007 --    O 017              -0.08        2.63438
   O 003 --    O 021              -0.08        2.63438
   O 008 --    O 018              -0.08        2.63438
   O 004 --    O 022              -0.08        2.63438
   O 005 --    O 019              -0.08        2.63845
   O 001 --    O 023              -0.08        2.63845
   O 002 --    O 024              -0.08        2.63845
   O 006 --    O 020              -0.08        2.63845
   O 014 --    O 022              -0.09        2.64182
   O 010 --    O 018              -0.09        2.64182
   O 013 --    O 021              -0.09        2.64182
   O 009 --    O 017              -0.09        2.64182
   O 016 --    O 024              -0.08        2.66235
   O 012 --    O 020              -0.08        2.66235
   O 011 --    O 019              -0.08        2.66235
   O 015 --    O 023              -0.08        2.66235
   O 008 --    O 011              -0.08        2.67618
   O 004 --    O 015              -0.08        2.67618
   O 003 --    O 016              -0.08        2.67618
   O 007 --    O 012              -0.08        2.67618
   O 004 --    O 009              -0.06        2.69040
   O 008 --    O 013              -0.06        2.69040
   O 007 --    O 014              -0.06        2.69040
   O 003 --    O 010              -0.06        2.69040
   O 023 --   Na 002              -0.02        2.69076
   O 019 --   Na 004              -0.02        2.69076
   O 020 --   Na 003              -0.02        2.69076
   O 024 --   Na 001              -0.02        2.69076
   O 006 --    O 008              -0.05        2.69853
   O 002 --    O 004              -0.05        2.69853
   O 001 --    O 003              -0.05        2.69853
   O 005 --    O 007              -0.05        2.69853
   O 006 --    O 009              -0.07        2.71023
   O 002 --    O 013              -0.07        2.71023
   O 005 --    O 010              -0.07        2.71023
   O 001 --    O 014              -0.07        2.71023
   O 017 --    O 021              -0.04        2.71114
   O 018 --    O 022              -0.04        2.71114
   O 019 --    O 023              -0.04        2.71765
   O 020 --    O 024              -0.04        2.71765
   O 002 --    O 011              -0.05        2.71988
   O 006 --    O 015              -0.05        2.71988
   O 001 --    O 012              -0.05        2.71988
   O 005 --    O 016              -0.05        2.71988
   O 021 --   Na 002              -0.02        2.74845
   O 017 --   Na 004              -0.02        2.74845
   O 018 --   Na 003              -0.02        2.74845
   O 022 --   Na 001              -0.02        2.74845
   O 008 --    O 016              -0.07        2.75306
   O 004 --    O 012              -0.07        2.75306
   O 007 --    O 015              -0.07        2.75306
   O 003 --    O 011              -0.07        2.75306
   O 005 --    O 013              -0.07        2.75828
   O 001 --    O 009              -0.07        2.75828
   O 002 --    O 010              -0.07        2.75828
   O 006 --    O 014              -0.07        2.75828
   O 009 --    O 011              -0.05        2.78038
   O 013 --    O 015              -0.05        2.78038
   O 014 --    O 016              -0.05        2.78038
   O 010 --    O 012              -0.05        2.78038
   O 008 --    O 009              -0.04        2.78207
   O 004 --    O 013              -0.04        2.78207
   O 003 --    O 014              -0.04        2.78207
   O 007 --    O 010              -0.04        2.78207
   O 006 --    O 011              -0.04        2.80126
   O 002 --    O 015              -0.04        2.80126
   O 005 --    O 012              -0.04        2.80126
   O 001 --    O 016              -0.04        2.80126
   O 012 --    O 023              -0.03        2.89756
   O 016 --    O 019              -0.03        2.89756
   O 011 --    O 024              -0.03        2.89756
   O 015 --    O 020              -0.03        2.89756
   O 014 --    O 017              -0.02        2.90962
   O 010 --    O 021              -0.02        2.90962
   O 009 --    O 022              -0.02        2.90962
   O 013 --    O 018              -0.02        2.90962
   O 004 --    O 006              -0.06        2.93453
   O 002 --    O 008              -0.06        2.93453
   O 001 --    O 007              -0.06        2.93453
   O 003 --    O 005              -0.06        2.93453
============================================================
 
 
Writing model to jadeite_4_30_GPa_cij__1__6.check
 
Writing analysis data to jadeite_4_30_GPa_cij__1__6.castep_bin
Initialisation time =      2.20 s
Calculation time    =   3950.75 s
Finalisation time   =      1.30 s
Total time          =   3954.24 s
Peak Memory Use     = 282580 kB
