 +-------------------------------------------------+
 |                                                 |
 |      CCC   AA    SSS  TTTTT  EEEEE  PPPP        |
 |     C     A  A  S       T    E      P   P       |
 |     C     AAAA   SS     T    EEE    PPPP        |
 |     C     A  A     S    T    E      P           |
 |      CCC  A  A  SSS     T    EEEEE  P           |
 |                                                 |
 +-------------------------------------------------+
 |                                                 |
 | Welcome to Academic Release CASTEP version 5.02 |
 | Ab Initio Total Energy Program                  |
 |                                                 |
 | Authors:                                        |
 | M. Segall, M. Probert, C. Pickard, P. Hasnip,   |
 | S. Clark, K. Refson, M. Payne                   |
 |                                                 |
 | Contributors:                                   |
 | P. Lindan, P. Haynes, J. White, V. Milman,      |
 | N. Govind, M. Gibson, P. Tulip, V. Cocula,      |
 | B. Montanari, D. Quigley, M. Glover,            |
 | L. Bernasconi, A. Perlov, M. Plummer            |
 |                                                 |
 | Copyright (c) 2000 - 2009                       |
 |                                                 |
 |     Distributed under the terms of an           |
 |     Agreement between the United Kingdom        |
 |     Car-Parrinello (UKCP) Consortium,           |
 |     Daresbury Laboratory and Accelrys, Inc.     |
 |                                                 |
 | Please cite                                     |
 |                                                 |
 |     "First principles methods using CASTEP"     |
 |                                                 |
 |         Zeitschrift fuer Kristallographie       |
 |           220(5-6) pp. 567-570 (2005)           |
 |                                                 |
 | S. J. Clark, M. D. Segall, C. J. Pickard,       |
 | P. J. Hasnip, M. J. Probert, K. Refson,         |
 | M. C. Payne                                     |
 |                                                 |
 |       in all publications arising from          |
 |              your use of CASTEP                 |
 |                                                 |
 +-------------------------------------------------+
 
 
 Pseudo atomic calculation performed for O 2s2 2p4
 
 Converged in 36 iterations to a total energy of -429.6485 eV
 
 
 Pseudo atomic calculation performed for Na 2s2 2p6 3s1
 
 Converged in 33 iterations to a total energy of -1302.8467 eV
 
 
 Pseudo atomic calculation performed for Al 3s2 3p1
 
 Converged in 20 iterations to a total energy of -52.7392 eV
 
 
 Pseudo atomic calculation performed for Si 3s2 3p2
 
 Converged in 21 iterations to a total energy of -101.9044 eV
 
Calculation parallelised over   36 nodes.
K-points are distributed over    6 groups, each containing    6 nodes.

 ************************************ Title ************************************
 

 ***************************** General Parameters ******************************
  
 output verbosity                               : normal  (1)
 write checkpoint data to                       : jadeite_4_30_GPa_cij__1__3.check
 type of calculation                            : geometry optimization
 stress calculation                             : on
 density difference calculation                 : off
 electron localisation func (ELF) calculation   : off
 Hirshfeld analysis                             : off
 unlimited duration calculation
 timing information                             : on
 memory usage estimate                          : on
 write final potential to formatted file        : off
 write final density to formatted file          : off
  
 output         length unit                     : A
 output           mass unit                     : amu
 output           time unit                     : ps
 output         charge unit                     : e
 output         energy unit                     : eV
 output          force unit                     : eV/A
 output       velocity unit                     : A/ps
 output       pressure unit                     : GPa
 output     inv_length unit                     : 1/A
 output      frequency unit                     : cm-1
 output force constant unit                     : eV/A**2
 output         volume unit                     : A**3
 output   IR intensity unit                     : (D/A)**2/amu
 output         dipole unit                     : D
 output         efield unit                     : eV/A/e
  
 wavefunctions paging                           : none
 data distribution                              : optimal for this architecture
 optimization strategy                          : maximize speed(+++)

 *********************** Exchange-Correlation Parameters ***********************
  
 using functional                               : Perdew Burke Ernzerhof
 Divergence correction                          : off
 DFT+D: Semi-empirical dispersion correction    : off

 ************************* Pseudopotential Parameters **************************
  
 pseudopotential representation                 : reciprocal space
 <beta|phi> representation                      : reciprocal space

 **************************** Basis Set Parameters *****************************
  
 plane wave basis set cut-off                   :   700.0000   eV
 finite basis set correction                    : none

 **************************** Electronic Parameters ****************************
  
 number of  electrons                           :  224.0    
 net charge of system                           :  0.000    
 net spin   of system                           :  0.000    
 number of  up  spins                           :  112.0    
 number of down spins                           :  112.0    
 treating system as non-spin-polarized
 number of bands                                :        112

 ********************* Electronic Minimization Parameters **********************
  
 Method: Treating system as non-metallic,
         and number of  SD  steps               :          1
         and number of  CG  steps               :          4
  
 total energy / atom convergence tol.           : 0.1000E-07   eV
 max force / atom convergence tol.              : ignored
 convergence tolerance window                   :          3   cycles
 max. number of SCF cycles                      :        100

 *********************** Population Analysis Parameters ************************
  
 Population analysis with cutoff                :  3.000       A

 ********************** Geometry Optimization Parameters ***********************
  
 optimization method                            : BFGS
 variable cell method                           : fixed basis quality
 max. number of steps                           :        300
 estimated bulk modulus                         :  500.0       GPa
 estimated <frequency>                          :  1668.       cm-1
 line minimiser tolerance                       :     0.4000
 total energy convergence tolerance             : 0.2000E-06   eV/atom
        max ionic |force| tolerance             : 0.1000E-02   eV/A
 max ionic |displacement| tolerance             : 0.1000E-02   A
   max |stress component| tolerance             : 0.1000E-02   GPa
 convergence tolerance window                   :          2   steps
 backup results every                           :          1   steps

 *******************************************************************************
  
 
                           -------------------------------
                                      Unit Cell
                           -------------------------------
        Real Lattice(A)                      Reciprocal Lattice(1/A)
   9.0480059   0.0000000  -2.8290832        0.6944276   0.0000000   0.0000000
   0.0000000   8.5603493   0.0666667        0.0000000   0.7339870   0.0000000
   0.0000000   0.0000000   5.2199179        0.3763648  -0.0093742   1.2036943
 
                       Lattice parameters(A)       Cell Angles
                    a =    9.479985          alpha =   89.553798
                    b =    8.560609          beta  =  107.363147
                    c =    5.219918          gamma =   90.133157
 
                       Current cell volume =  404.303998       A**3
 
                           -------------------------------
                                     Cell Contents
                           -------------------------------
                         Total number of ions in cell =   40
                      Total number of species in cell =    4
                        Max number of any one species =   24
 
            xxxxxxxxxxxxxxxxxxxxxxxxxxxxxxxxxxxxxxxxxxxxxxxxxxxxxxxxxxxx
            x  Element    Atom        Fractional coordinates of atoms  x
            x            Number           u          v          w      x
            x----------------------------------------------------------x
            x  O            1         0.109277   0.076953   0.129205   x
            x  O            2         0.609279   0.576952   0.129208   x
            x  O            3         0.890723   0.076953   0.370795   x
            x  O            4         0.390721   0.576952   0.370792   x
            x  O            5         0.890723   0.923047   0.870795   x
            x  O            6         0.390721   0.423048   0.870792   x
            x  O            7         0.109277   0.923047   0.629205   x
            x  O            8         0.609279   0.423048   0.629208   x
            x  O            9         0.361047   0.263746   0.295383   x
            x  O           10         0.861046   0.763747   0.295382   x
            x  O           11         0.638953   0.263746   0.204617   x
            x  O           12         0.138954   0.763747   0.204618   x
            x  O           13         0.638953   0.736254   0.704617   x
            x  O           14         0.138954   0.236253   0.704618   x
            x  O           15         0.361047   0.736254   0.795383   x
            x  O           16         0.861046   0.236253   0.795382   x
            x  O           17         0.354029   0.008469   1.005059   x
            x  O           18         0.854032   0.508466   1.005069   x
            x  O           19         0.645971   0.008469   0.494941   x
            x  O           20         0.145968   0.508466   0.494931   x
            x  O           21         0.645971   0.991530  -0.005059   x
            x  O           22         0.145968   0.491534  -0.005069   x
            x  O           23         0.354029   0.991530   0.505059   x
            x  O           24         0.854032   0.491534   0.505069   x
            x  Na           1         0.000000   0.301230   0.250000   x
            x  Na           2         0.500000   0.801235   0.250000   x
            x  Na           3         0.000000   0.698770   0.750000   x
            x  Na           4         0.500000   0.198765   0.750000   x
            x  Al           1         0.000000   0.906276   0.250000   x
            x  Al           2         0.500000   0.406277   0.250000   x
            x  Al           3         0.000000   0.093724   0.750000   x
            x  Al           4         0.500000   0.593723   0.750000   x
            x  Si           1         0.290869   0.093825   0.228100   x
            x  Si           2         0.790871   0.593824   0.228106   x
            x  Si           3         0.709131   0.093825   0.271900   x
            x  Si           4         0.209129   0.593824   0.271894   x
            x  Si           5         0.709131   0.906176   0.771900   x
            x  Si           6         0.209129   0.406176   0.771894   x
            x  Si           7         0.290869   0.906176   0.728100   x
            x  Si           8         0.790871   0.406176   0.728106   x
            xxxxxxxxxxxxxxxxxxxxxxxxxxxxxxxxxxxxxxxxxxxxxxxxxxxxxxxxxxxx
 
 
                         No user defined ionic velocities
 
                           -------------------------------
                                   Details of Species
                           -------------------------------
 
                               Mass of species in AMU
                                    O   15.9994000
                                    Na   22.9897700
                                    Al   26.9815400
                                    Si   28.0855000
 
                          Electric Quadrupole Moment (Barn)
                                    O   -0.0255800 Isotope 17
                                    Na    0.1040000 Isotope 23
                                    Al    0.1466000 Isotope 27
                                    Si    1.0000000 No Isotope Defined
 
                          Files used for pseudopotentials:
                                    O O_00PBE.usp
                                    Na Na_00PBE.usp
                                    Al Al_00PBE.usp
                                    Si Si_00PBE.usp
 
                           -------------------------------
                              k-Points For BZ Sampling
                           -------------------------------
                       MP grid size for SCF calculation is  2  2  3
                         Number of kpoints used = 6
 
             +++++++++++++++++++++++++++++++++++++++++++++++++++++++
             +  Number       Fractional coordinates        Weight  +
             +-----------------------------------------------------+
             +     1  -0.250000   0.250000   0.333333   0.1666667  +
             +     2  -0.250000   0.250000   0.000000   0.1666667  +
             +     3   0.250000  -0.250000   0.333333   0.1666667  +
             +     4  -0.250000  -0.250000   0.333333   0.1666667  +
             +     5   0.250000   0.250000   0.000000   0.1666667  +
             +     6   0.250000   0.250000   0.333333   0.1666667  +
             +++++++++++++++++++++++++++++++++++++++++++++++++++++++
 
                           -------------------------------
                               Symmetry and Constraints
                           -------------------------------
 
                      Number of symmetry operations   = 2
                      Number of ionic constraints     = 3
                      Maximum deviation from symmetry = 0.581493E-15     ANG
               Point group of crystal =     2: Ci, -1, -1
           Set iprint > 1 for details on symmetry rotations/translations
 
                          Centre of mass is constrained
             Set iprint > 1 for details of linear ionic constraints
 
                         Number of cell constraints= 6
                         Cell constraints are:  0 0 0 0 0 0
 
                         External pressure/stress (GPa)
                          4.30000   0.00000   0.00000
                                    4.30000   0.00000
                                              4.30000
  
+---------------- MEMORY AND SCRATCH DISK ESTIMATES PER NODE -----------------+
|                                                     Memory          Disk    |
| Model and support data                               91.7 MB         0.0 MB |
| Electronic energy minimisation requirements          32.7 MB         0.0 MB |
|                                               ----------------------------- |
| Approx. total storage required per node             124.3 MB         0.0 MB |
|                                                                             |
| Requirements will fluctuate during execution and may exceed these estimates |
+-----------------------------------------------------------------------------+
------------------------------------------------------------------------ <-- SCF
SCF loop      Energy                           Energy gain       Timer   <-- SCF
                                               per atom          (sec)   <-- SCF
------------------------------------------------------------------------ <-- SCF
Initial  -1.62067670E+003                                          6.99  <-- SCF
      1  -1.65471209E+004                    3.73161106E+002      27.64  <-- SCF
      2  -1.68161104E+004                    6.72473541E+000      47.34  <-- SCF
      3  -1.68426716E+004                    6.64032346E-001      68.27  <-- SCF
      4  -1.68461029E+004                    8.57809745E-002      87.94  <-- SCF
      5  -1.68461508E+004                    1.19820587E-003     107.70  <-- SCF
      6  -1.68461516E+004                    2.01179573E-005     127.57  <-- SCF
      7  -1.68461516E+004                    5.46435391E-007     147.33  <-- SCF
      8  -1.68461516E+004                    1.65908495E-008     167.07  <-- SCF
      9  -1.68461516E+004                    5.20648886E-010     186.77  <-- SCF
     10  -1.68461516E+004                    1.59319178E-011     208.26  <-- SCF
------------------------------------------------------------------------ <-- SCF
 
Final energy =  -16846.15164186     eV
(energy not corrected for finite basis set)
 
 
Writing model to jadeite_4_30_GPa_cij__1__3.check
 
+---------------- MEMORY AND SCRATCH DISK ESTIMATES PER NODE -----------------+
|                                                     Memory          Disk    |
| Model and support data                               84.7 MB         0.0 MB |
| Geometry minimisation requirements                   38.0 MB         0.0 MB |
|                                               ----------------------------- |
| Approx. total storage required per node             122.7 MB         0.0 MB |
|                                                                             |
| Requirements will fluctuate during execution and may exceed these estimates |
+-----------------------------------------------------------------------------+
 
 
 *********************************** Forces ***********************************
 *                                                                            *
 *                        Cartesian components (eV/A)                         *
 * -------------------------------------------------------------------------- *
 *                   x                    y                    z              *
 *                                                                            *
 * O         1      0.22073             -0.00118             -0.00757         *
 * O         2      0.22058             -0.00113             -0.00761         *
 * O         3     -0.24444              0.01691              0.01754         *
 * O         4     -0.24429              0.01697              0.01757         *
 * O         5     -0.22073              0.00118              0.00757         *
 * O         6     -0.22058              0.00113              0.00761         *
 * O         7      0.24444             -0.01691             -0.01754         *
 * O         8      0.24429             -0.01697             -0.01757         *
 * O         9     -0.01002             -0.06716             -0.03563         *
 * O        10     -0.00989             -0.06708             -0.03562         *
 * O        11     -0.03805              0.00883              0.00571         *
 * O        12     -0.03818              0.00890              0.00570         *
 * O        13      0.01002              0.06716              0.03563         *
 * O        14      0.00989              0.06708              0.03562         *
 * O        15      0.03805             -0.00883             -0.00571         *
 * O        16      0.03818             -0.00890             -0.00570         *
 * O        17     -0.13213             -0.00513             -0.00240         *
 * O        18     -0.13219             -0.00505             -0.00244         *
 * O        19      0.00111             -0.00177              0.00601         *
 * O        20      0.00116             -0.00170              0.00605         *
 * O        21      0.13213              0.00513              0.00240         *
 * O        22      0.13219              0.00505              0.00244         *
 * O        23     -0.00111              0.00177             -0.00601         *
 * O        24     -0.00116              0.00170             -0.00605         *
 * Na        1      0.01616              0.00692             -0.01722         *
 * Na        2      0.01615              0.00680             -0.01722         *
 * Na        3     -0.01616             -0.00692              0.01722         *
 * Na        4     -0.01615             -0.00680              0.01722         *
 * Al        1      0.02773             -0.01494              0.00702         *
 * Al        2      0.02773             -0.01484              0.00702         *
 * Al        3     -0.02773              0.01494             -0.00702         *
 * Al        4     -0.02773              0.01484             -0.00702         *
 * Si        1     -0.19907              0.02982             -0.18585         *
 * Si        2     -0.19928              0.02983             -0.18588         *
 * Si        3      0.23635              0.00423             -0.18384         *
 * Si        4      0.23656              0.00426             -0.18382         *
 * Si        5      0.19907             -0.02982              0.18585         *
 * Si        6      0.19928             -0.02983              0.18588         *
 * Si        7     -0.23635             -0.00423              0.18384         *
 * Si        8     -0.23656             -0.00426              0.18382         *
 *                                                                            *
 ******************************************************************************
 BFGS: finished iteration     0 with enthalpy= -1.68353007E+004 eV
  
 +-----------+-----------------+-----------------+------------+-----+ <-- BFGS
 | Parameter |      value      |    tolerance    |    units   | OK? | <-- BFGS
 +-----------+-----------------+-----------------+------------+-----+ <-- BFGS
 |  dE/ion   |   0.000000E+000 |   2.000000E-007 |         eV | No  | <-- BFGS
 |  |F|max   |   2.996197E-001 |   1.000000E-003 |       eV/A | No  | <-- BFGS
 |  |dR|max  |   0.000000E+000 |   1.000000E-003 |          A | No  | <-- BFGS
 +-----------+-----------------+-----------------+------------+-----+ <-- BFGS
  

================================================================================
 Starting BFGS iteration          1 ...
================================================================================
 
Writing model to jadeite_4_30_GPa_cij__1__3.check
  
 +------------+-------------+-------------+-----------------+ <-- min BFGS
 |    Step    |   lambda    |   F.delta   |    enthalpy     | <-- min BFGS
 +------------+-------------+-------------+-----------------+ <-- min BFGS
 |  previous  |    0.000000 |    0.000214 |   -16835.300733 | <-- min BFGS
 +------------+-------------+-------------+-----------------+ <-- min BFGS
  

--------------------------------------------------------------------------------
 BFGS: starting iteration         1 with trial guess (lambda=  1.000000)
--------------------------------------------------------------------------------
 
                           -------------------------------
                                     Cell Contents
                           -------------------------------
 
            xxxxxxxxxxxxxxxxxxxxxxxxxxxxxxxxxxxxxxxxxxxxxxxxxxxxxxxxxxxx
            x  Element    Atom        Fractional coordinates of atoms  x
            x            Number           u          v          w      x
            x----------------------------------------------------------x
            x  O            1         0.109395   0.076952   0.129262   x
            x  O            2         0.609397   0.576951   0.129265   x
            x  O            3         0.890592   0.076963   0.370740   x
            x  O            4         0.390590   0.576961   0.370737   x
            x  O            5         0.890605   0.923048   0.870738   x
            x  O            6         0.390603   0.423049   0.870735   x
            x  O            7         0.109408   0.923037   0.629260   x
            x  O            8         0.609410   0.423039   0.629263   x
            x  O            9         0.361042   0.263709   0.295348   x
            x  O           10         0.861041   0.763709   0.295347   x
            x  O           11         0.638933   0.263751   0.204611   x
            x  O           12         0.138934   0.763752   0.204612   x
            x  O           13         0.638958   0.736291   0.704652   x
            x  O           14         0.138959   0.236291   0.704653   x
            x  O           15         0.361067   0.736249   0.795389   x
            x  O           16         0.861066   0.236248   0.795388   x
            x  O           17         0.353958   0.008467   1.005019   x
            x  O           18         0.853961   0.508463   1.005028   x
            x  O           19         0.645972   0.008469   0.494947   x
            x  O           20         0.145969   0.508465   0.494937   x
            x  O           21         0.646042   0.991533  -0.005019   x
            x  O           22         0.146039   0.491537  -0.005028   x
            x  O           23         0.354028   0.991531   0.505053   x
            x  O           24         0.854031   0.491535   0.505063   x
            x  Na           1         0.000009   0.301234   0.249989   x
            x  Na           2         0.500009   0.801238   0.249989   x
            x  Na           3        -0.000009   0.698766   0.750011   x
            x  Na           4         0.499991   0.198762   0.750011   x
            x  Al           1         0.000015   0.906268   0.250015   x
            x  Al           2         0.500015   0.406268   0.250015   x
            x  Al           3        -0.000015   0.093732   0.749985   x
            x  Al           4         0.499985   0.593732   0.749985   x
            x  Si           1         0.290763   0.093841   0.227870   x
            x  Si           2         0.790764   0.593840   0.227876   x
            x  Si           3         0.709257   0.093827   0.271798   x
            x  Si           4         0.209255   0.593826   0.271792   x
            x  Si           5         0.709237   0.906159   0.772130   x
            x  Si           6         0.209236   0.406160   0.772124   x
            x  Si           7         0.290743   0.906173   0.728202   x
            x  Si           8         0.790745   0.406174   0.728208   x
            xxxxxxxxxxxxxxxxxxxxxxxxxxxxxxxxxxxxxxxxxxxxxxxxxxxxxxxxxxxx
 
 
------------------------------------------------------------------------ <-- SCF
SCF loop      Energy                           Energy gain       Timer   <-- SCF
                                               per atom          (sec)   <-- SCF
------------------------------------------------------------------------ <-- SCF
Initial  -1.68461435E+004                                        220.10  <-- SCF
      1  -1.68461566E+004                    3.27753949E-004     240.02  <-- SCF
      2  -1.68461566E+004                    1.29506306E-007     259.90  <-- SCF
      3  -1.68461566E+004                    1.56488555E-009     280.48  <-- SCF
      4  -1.68461566E+004                    3.24052114E-011     301.05  <-- SCF
------------------------------------------------------------------------ <-- SCF
 
Final energy =  -16846.15664899     eV
(energy not corrected for finite basis set)
 
 
 *********************************** Forces ***********************************
 *                                                                            *
 *                        Cartesian components (eV/A)                         *
 * -------------------------------------------------------------------------- *
 *                   x                    y                    z              *
 *                                                                            *
 * O         1      0.15568             -0.00750             -0.01081         *
 * O         2      0.15553             -0.00745             -0.01084         *
 * O         3     -0.17135              0.00807              0.01318         *
 * O         4     -0.17119              0.00812              0.01322         *
 * O         5     -0.15568              0.00750              0.01081         *
 * O         6     -0.15553              0.00745              0.01084         *
 * O         7      0.17135             -0.00807             -0.01318         *
 * O         8      0.17119             -0.00812             -0.01322         *
 * O         9     -0.00651             -0.05321             -0.04006         *
 * O        10     -0.00641             -0.05317             -0.04005         *
 * O        11     -0.03269              0.00162              0.00005         *
 * O        12     -0.03279              0.00166              0.00004         *
 * O        13      0.00651              0.05321              0.04006         *
 * O        14      0.00641              0.05317              0.04005         *
 * O        15      0.03269             -0.00162             -0.00005         *
 * O        16      0.03279             -0.00166             -0.00004         *
 * O        17     -0.12437             -0.00677             -0.00590         *
 * O        18     -0.12444             -0.00670             -0.00594         *
 * O        19      0.02081             -0.00125              0.00044         *
 * O        20      0.02088             -0.00119              0.00049         *
 * O        21      0.12437              0.00677              0.00590         *
 * O        22      0.12444              0.00670              0.00594         *
 * O        23     -0.02081              0.00125             -0.00044         *
 * O        24     -0.02088              0.00119             -0.00049         *
 * Na        1      0.01776              0.01295             -0.01420         *
 * Na        2      0.01775              0.01284             -0.01420         *
 * Na        3     -0.01776             -0.01295              0.01420         *
 * Na        4     -0.01775             -0.01284              0.01420         *
 * Al        1      0.02793             -0.02608              0.00557         *
 * Al        2      0.02793             -0.02599              0.00558         *
 * Al        3     -0.02793              0.02608             -0.00557         *
 * Al        4     -0.02793              0.02599             -0.00558         *
 * Si        1     -0.13617              0.01720             -0.13866         *
 * Si        2     -0.13633              0.01724             -0.13868         *
 * Si        3      0.15881              0.00698             -0.13455         *
 * Si        4      0.15897              0.00704             -0.13453         *
 * Si        5      0.13617             -0.01720              0.13866         *
 * Si        6      0.13633             -0.01724              0.13868         *
 * Si        7     -0.15881             -0.00698              0.13455         *
 * Si        8     -0.15897             -0.00704              0.13453         *
 *                                                                            *
 ******************************************************************************
  
 +------------+-------------+-------------+-----------------+ <-- min BFGS
 |    Step    |   lambda    |   F.delta   |    enthalpy     | <-- min BFGS
 +------------+-------------+-------------+-----------------+ <-- min BFGS
 |  previous  |    0.000000 |    0.000214 |   -16835.300733 | <-- min BFGS
 | trial step |    1.000000 |    0.000154 |   -16835.305740 | <-- min BFGS
 +------------+-------------+-------------+-----------------+ <-- min BFGS
  

--------------------------------------------------------------------------------
 BFGS: improving iteration         1 with line minimization (lambda=  3.601631)
--------------------------------------------------------------------------------
 
                           -------------------------------
                                     Cell Contents
                           -------------------------------
 
            xxxxxxxxxxxxxxxxxxxxxxxxxxxxxxxxxxxxxxxxxxxxxxxxxxxxxxxxxxxx
            x  Element    Atom        Fractional coordinates of atoms  x
            x            Number           u          v          w      x
            x----------------------------------------------------------x
            x  O            1         0.109702   0.076951   0.129410   x
            x  O            2         0.609704   0.576949   0.129413   x
            x  O            3         0.890252   0.076987   0.370598   x
            x  O            4         0.390251   0.576986   0.370595   x
            x  O            5         0.890298   0.923049   0.870590   x
            x  O            6         0.390296   0.423051   0.870587   x
            x  O            7         0.109748   0.923013   0.629402   x
            x  O            8         0.609749   0.423014   0.629405   x
            x  O            9         0.361028   0.263610   0.295255   x
            x  O           10         0.861027   0.763611   0.295255   x
            x  O           11         0.638880   0.263764   0.204596   x
            x  O           12         0.138880   0.763765   0.204597   x
            x  O           13         0.638972   0.736390   0.704745   x
            x  O           14         0.138973   0.236389   0.704745   x
            x  O           15         0.361120   0.736236   0.795404   x
            x  O           16         0.861120   0.236235   0.795403   x
            x  O           17         0.353775   0.008459   1.004913   x
            x  O           18         0.853778   0.508456   1.004923   x
            x  O           19         0.645973   0.008466   0.494962   x
            x  O           20         0.145970   0.508463   0.494952   x
            x  O           21         0.646225   0.991541  -0.004913   x
            x  O           22         0.146222   0.491544  -0.004923   x
            x  O           23         0.354027   0.991534   0.505038   x
            x  O           24         0.854030   0.491537   0.505048   x
            x  Na           1         0.000031   0.301244   0.249959   x
            x  Na           2         0.500031   0.801248   0.249959   x
            x  Na           3        -0.000031   0.698756   0.750041   x
            x  Na           4         0.499969   0.198752   0.750041   x
            x  Al           1         0.000053   0.906246   0.250053   x
            x  Al           2         0.500053   0.406246   0.250053   x
            x  Al           3        -0.000053   0.093754   0.749947   x
            x  Al           4         0.499947   0.593754   0.749947   x
            x  Si           1         0.290486   0.093885   0.227271   x
            x  Si           2         0.790487   0.593884   0.227277   x
            x  Si           3         0.709586   0.093833   0.271533   x
            x  Si           4         0.209584   0.593832   0.271527   x
            x  Si           5         0.709514   0.906115   0.772729   x
            x  Si           6         0.209513   0.406116   0.772723   x
            x  Si           7         0.290414   0.906167   0.728467   x
            x  Si           8         0.790416   0.406168   0.728473   x
            xxxxxxxxxxxxxxxxxxxxxxxxxxxxxxxxxxxxxxxxxxxxxxxxxxxxxxxxxxxx
 
 
------------------------------------------------------------------------ <-- SCF
SCF loop      Energy                           Energy gain       Timer   <-- SCF
                                               per atom          (sec)   <-- SCF
------------------------------------------------------------------------ <-- SCF
Initial  -1.68460829E+004                                        309.77  <-- SCF
      1  -1.68461620E+004                    1.97947439E-003     329.61  <-- SCF
      2  -1.68461621E+004                    8.15259666E-007     349.08  <-- SCF
      3  -1.68461621E+004                    9.33672253E-009     368.71  <-- SCF
      4  -1.68461621E+004                    1.83835770E-010     389.19  <-- SCF
------------------------------------------------------------------------ <-- SCF
 
Final energy =  -16846.16206995     eV
(energy not corrected for finite basis set)
 
 
 *********************************** Forces ***********************************
 *                                                                            *
 *                        Cartesian components (eV/A)                         *
 * -------------------------------------------------------------------------- *
 *                   x                    y                    z              *
 *                                                                            *
 * O         1     -0.01621             -0.02415             -0.01899         *
 * O         2     -0.01637             -0.02410             -0.01902         *
 * O         3      0.02232             -0.01509              0.00211         *
 * O         4      0.02247             -0.01505              0.00213         *
 * O         5      0.01621              0.02415              0.01899         *
 * O         6      0.01637              0.02410              0.01902         *
 * O         7     -0.02232              0.01509             -0.00211         *
 * O         8     -0.02247              0.01505             -0.00213         *
 * O         9      0.00259             -0.01700             -0.05159         *
 * O        10      0.00262             -0.01706             -0.05158         *
 * O        11     -0.01874             -0.01700             -0.01474         *
 * O        12     -0.01877             -0.01706             -0.01476         *
 * O        13     -0.00259              0.01700              0.05159         *
 * O        14     -0.00262              0.01706              0.05158         *
 * O        15      0.01874              0.01700              0.01474         *
 * O        16      0.01877              0.01706              0.01476         *
 * O        17     -0.10396             -0.01105             -0.01499         *
 * O        18     -0.10406             -0.01099             -0.01505         *
 * O        19      0.07158              0.00006             -0.01385         *
 * O        20      0.07169              0.00011             -0.01380         *
 * O        21      0.10396              0.01105              0.01499         *
 * O        22      0.10406              0.01099              0.01505         *
 * O        23     -0.07158             -0.00006              0.01385         *
 * O        24     -0.07169             -0.00011              0.01380         *
 * Na        1      0.02191              0.02868             -0.00636         *
 * Na        2      0.02191              0.02858             -0.00636         *
 * Na        3     -0.02191             -0.02868              0.00636         *
 * Na        4     -0.02191             -0.02858              0.00636         *
 * Al        1      0.02853             -0.05520              0.00179         *
 * Al        2      0.02853             -0.05517              0.00179         *
 * Al        3     -0.02853              0.05520             -0.00179         *
 * Al        4     -0.02853              0.05517             -0.00179         *
 * Si        1      0.02947             -0.01476             -0.01687         *
 * Si        2      0.02943             -0.01466             -0.01686         *
 * Si        3     -0.04611              0.01495             -0.00729         *
 * Si        4     -0.04606              0.01506             -0.00728         *
 * Si        5     -0.02947              0.01476              0.01687         *
 * Si        6     -0.02943              0.01466              0.01686         *
 * Si        7      0.04611             -0.01495              0.00729         *
 * Si        8      0.04606             -0.01506              0.00728         *
 *                                                                            *
 ******************************************************************************
  
 +------------+-------------+-------------+-----------------+ <-- min BFGS
 |    Step    |   lambda    |   F.delta   |    enthalpy     | <-- min BFGS
 +------------+-------------+-------------+-----------------+ <-- min BFGS
 |  previous  |    0.000000 |    0.000214 |   -16835.300733 | <-- min BFGS
 | trial step |    1.000000 |    0.000154 |   -16835.305740 | <-- min BFGS
 |  line step |    3.601631 |   -0.000002 |   -16835.311161 | <-- min BFGS
 +------------+-------------+-------------+-----------------+ <-- min BFGS
  
 BFGS: finished iteration     1 with enthalpy= -1.68353112E+004 eV
  
 +-----------+-----------------+-----------------+------------+-----+ <-- BFGS
 | Parameter |      value      |    tolerance    |    units   | OK? | <-- BFGS
 +-----------+-----------------+-----------------+------------+-----+ <-- BFGS
 |  dE/ion   |   2.607023E-004 |   2.000000E-007 |         eV | No  | <-- BFGS
 |  |F|max   |   1.057201E-001 |   1.000000E-003 |       eV/A | No  | <-- BFGS
 |  |dR|max  |   5.218932E-003 |   1.000000E-003 |          A | No  | <-- BFGS
 +-----------+-----------------+-----------------+------------+-----+ <-- BFGS
  

================================================================================
 Starting BFGS iteration          2 ...
================================================================================
 
Writing model to jadeite_4_30_GPa_cij__1__3.check
  
 +------------+-------------+-------------+-----------------+ <-- min BFGS
 |    Step    |   lambda    |   F.delta   |    enthalpy     | <-- min BFGS
 +------------+-------------+-------------+-----------------+ <-- min BFGS
 |  previous  |    0.000000 |    0.000022 |   -16835.311161 | <-- min BFGS
 +------------+-------------+-------------+-----------------+ <-- min BFGS
  

--------------------------------------------------------------------------------
 BFGS: starting iteration         2 with trial guess (lambda=  1.000000)
--------------------------------------------------------------------------------
 
                           -------------------------------
                                     Cell Contents
                           -------------------------------
 
            xxxxxxxxxxxxxxxxxxxxxxxxxxxxxxxxxxxxxxxxxxxxxxxxxxxxxxxxxxxx
            x  Element    Atom        Fractional coordinates of atoms  x
            x            Number           u          v          w      x
            x----------------------------------------------------------x
            x  O            1         0.109703   0.076937   0.129393   x
            x  O            2         0.609705   0.576936   0.129395   x
            x  O            3         0.890253   0.076980   0.370602   x
            x  O            4         0.390252   0.576978   0.370599   x
            x  O            5         0.890297   0.923063   0.870607   x
            x  O            6         0.390295   0.423064   0.870605   x
            x  O            7         0.109747   0.923020   0.629398   x
            x  O            8         0.609748   0.423022   0.629401   x
            x  O            9         0.361029   0.263597   0.295206   x
            x  O           10         0.861028   0.763598   0.295205   x
            x  O           11         0.638868   0.263755   0.204577   x
            x  O           12         0.138869   0.763756   0.204578   x
            x  O           13         0.638971   0.736403   0.704794   x
            x  O           14         0.138972   0.236402   0.704795   x
            x  O           15         0.361132   0.736245   0.795423   x
            x  O           16         0.861131   0.236244   0.795422   x
            x  O           17         0.353714   0.008453   1.004866   x
            x  O           18         0.853716   0.508449   1.004876   x
            x  O           19         0.646011   0.008466   0.494971   x
            x  O           20         0.146008   0.508463   0.494961   x
            x  O           21         0.646286   0.991547  -0.004866   x
            x  O           22         0.146284   0.491551  -0.004876   x
            x  O           23         0.353989   0.991534   0.505029   x
            x  O           24         0.853992   0.491537   0.505039   x
            x  Na           1         0.000043   0.301260   0.249959   x
            x  Na           2         0.500043   0.801265   0.249959   x
            x  Na           3        -0.000043   0.698740   0.750041   x
            x  Na           4         0.499957   0.198735   0.750041   x
            x  Al           1         0.000070   0.906214   0.250064   x
            x  Al           2         0.500070   0.406215   0.250064   x
            x  Al           3        -0.000070   0.093786   0.749936   x
            x  Al           4         0.499930   0.593785   0.749936   x
            x  Si           1         0.290493   0.093878   0.227245   x
            x  Si           2         0.790494   0.593877   0.227251   x
            x  Si           3         0.709572   0.093842   0.271504   x
            x  Si           4         0.209570   0.593841   0.271499   x
            x  Si           5         0.709507   0.906122   0.772755   x
            x  Si           6         0.209506   0.406123   0.772749   x
            x  Si           7         0.290428   0.906158   0.728496   x
            x  Si           8         0.790430   0.406159   0.728501   x
            xxxxxxxxxxxxxxxxxxxxxxxxxxxxxxxxxxxxxxxxxxxxxxxxxxxxxxxxxxxx
 
 
------------------------------------------------------------------------ <-- SCF
SCF loop      Energy                           Energy gain       Timer   <-- SCF
                                               per atom          (sec)   <-- SCF
------------------------------------------------------------------------ <-- SCF
Initial  -1.68461609E+004                                        399.39  <-- SCF
      1  -1.68461626E+004                    4.39624881E-005     419.45  <-- SCF
      2  -1.68461626E+004                    1.73740657E-008     439.33  <-- SCF
      3  -1.68461626E+004                    1.47563588E-010     460.11  <-- SCF
      4  -1.68461626E+004                    3.24825508E-012     483.17  <-- SCF
------------------------------------------------------------------------ <-- SCF
 
Final energy =  -16846.16263521     eV
(energy not corrected for finite basis set)
 
 
 *********************************** Forces ***********************************
 *                                                                            *
 *                        Cartesian components (eV/A)                         *
 * -------------------------------------------------------------------------- *
 *                   x                    y                    z              *
 *                                                                            *
 * O         1     -0.01499             -0.02255             -0.01809         *
 * O         2     -0.01512             -0.02250             -0.01812         *
 * O         3      0.01961             -0.01224              0.00260         *
 * O         4      0.01974             -0.01219              0.00262         *
 * O         5      0.01499              0.02255              0.01809         *
 * O         6      0.01512              0.02250              0.01812         *
 * O         7     -0.01961              0.01224             -0.00260         *
 * O         8     -0.01974              0.01219             -0.00262         *
 * O         9      0.00400             -0.01728             -0.05006         *
 * O        10      0.00404             -0.01732             -0.05004         *
 * O        11     -0.01935             -0.01554             -0.01560         *
 * O        12     -0.01939             -0.01558             -0.01562         *
 * O        13     -0.00400              0.01728              0.05006         *
 * O        14     -0.00404              0.01732              0.05004         *
 * O        15      0.01935              0.01554              0.01560         *
 * O        16      0.01939              0.01558              0.01562         *
 * O        17     -0.09289             -0.01074             -0.01383         *
 * O        18     -0.09300             -0.01069             -0.01388         *
 * O        19      0.06594             -0.00075             -0.01091         *
 * O        20      0.06604             -0.00070             -0.01087         *
 * O        21      0.09289              0.01074              0.01383         *
 * O        22      0.09300              0.01069              0.01388         *
 * O        23     -0.06594              0.00075              0.01091         *
 * O        24     -0.06604              0.00070              0.01087         *
 * Na        1      0.02223              0.02694             -0.00587         *
 * Na        2      0.02222              0.02684             -0.00587         *
 * Na        3     -0.02223             -0.02694              0.00587         *
 * Na        4     -0.02222             -0.02684              0.00587         *
 * Al        1      0.02669             -0.04915              0.00171         *
 * Al        2      0.02668             -0.04912              0.00171         *
 * Al        3     -0.02669              0.04915             -0.00171         *
 * Al        4     -0.02668              0.04912             -0.00171         *
 * Si        1      0.02006             -0.01326             -0.01056         *
 * Si        2      0.02001             -0.01318             -0.01056         *
 * Si        3     -0.03248              0.01398             -0.00166         *
 * Si        4     -0.03242              0.01406             -0.00165         *
 * Si        5     -0.02006              0.01326              0.01056         *
 * Si        6     -0.02001              0.01318              0.01056         *
 * Si        7      0.03248             -0.01398              0.00166         *
 * Si        8      0.03242             -0.01406              0.00165         *
 *                                                                            *
 ******************************************************************************
  
 +------------+-------------+-------------+-----------------+ <-- min BFGS
 |    Step    |   lambda    |   F.delta   |    enthalpy     | <-- min BFGS
 +------------+-------------+-------------+-----------------+ <-- min BFGS
 |  previous  |    0.000000 |    0.000022 |   -16835.311161 | <-- min BFGS
 | trial step |    1.000000 |    0.000020 |   -16835.311726 | <-- min BFGS
 +------------+-------------+-------------+-----------------+ <-- min BFGS
  

--------------------------------------------------------------------------------
 BFGS: improving iteration         2 with line minimization (lambda=  9.707029)
--------------------------------------------------------------------------------
 
                           -------------------------------
                                     Cell Contents
                           -------------------------------
 
            xxxxxxxxxxxxxxxxxxxxxxxxxxxxxxxxxxxxxxxxxxxxxxxxxxxxxxxxxxxx
            x  Element    Atom        Fractional coordinates of atoms  x
            x            Number           u          v          w      x
            x----------------------------------------------------------x
            x  O            1         0.109714   0.076819   0.129243   x
            x  O            2         0.609715   0.576817   0.129245   x
            x  O            3         0.890262   0.076913   0.370636   x
            x  O            4         0.390261   0.576912   0.370634   x
            x  O            5         0.890286   0.923181   0.870757   x
            x  O            6         0.390285   0.423183   0.870755   x
            x  O            7         0.109738   0.923087   0.629364   x
            x  O            8         0.609739   0.423088   0.629366   x
            x  O            9         0.361037   0.263487   0.294775   x
            x  O           10         0.861036   0.763487   0.294774   x
            x  O           11         0.638767   0.263676   0.204409   x
            x  O           12         0.138767   0.763676   0.204409   x
            x  O           13         0.638963   0.736513   0.705225   x
            x  O           14         0.138964   0.236513   0.705226   x
            x  O           15         0.361233   0.736324   0.795591   x
            x  O           16         0.861233   0.236324   0.795591   x
            x  O           17         0.353182   0.008397   1.004457   x
            x  O           18         0.853184   0.508394   1.004466   x
            x  O           19         0.646342   0.008465   0.495043   x
            x  O           20         0.146340   0.508462   0.495034   x
            x  O           21         0.646818   0.991603  -0.004457   x
            x  O           22         0.146816   0.491606  -0.004466   x
            x  O           23         0.353658   0.991535   0.504957   x
            x  O           24         0.853660   0.491538   0.504966   x
            x  Na           1         0.000151   0.301403   0.249952   x
            x  Na           2         0.500151   0.801407   0.249952   x
            x  Na           3        -0.000151   0.698597   0.750048   x
            x  Na           4         0.499849   0.198593   0.750048   x
            x  Al           1         0.000212   0.905939   0.250164   x
            x  Al           2         0.500212   0.405939   0.250164   x
            x  Al           3        -0.000212   0.094061   0.749836   x
            x  Al           4         0.499788   0.594061   0.749836   x
            x  Si           1         0.290552   0.093818   0.227018   x
            x  Si           2         0.790553   0.593818   0.227024   x
            x  Si           3         0.709451   0.093916   0.271256   x
            x  Si           4         0.209449   0.593916   0.271250   x
            x  Si           5         0.709448   0.906182   0.772982   x
            x  Si           6         0.209447   0.406182   0.772976   x
            x  Si           7         0.290549   0.906084   0.728744   x
            x  Si           8         0.790551   0.406084   0.728750   x
            xxxxxxxxxxxxxxxxxxxxxxxxxxxxxxxxxxxxxxxxxxxxxxxxxxxxxxxxxxxx
 
 
------------------------------------------------------------------------ <-- SCF
SCF loop      Energy                           Energy gain       Timer   <-- SCF
                                               per atom          (sec)   <-- SCF
------------------------------------------------------------------------ <-- SCF
Initial  -1.68460753E+004                                        491.91  <-- SCF
      1  -1.68461649E+004                    2.24008447E-003     511.59  <-- SCF
      2  -1.68461650E+004                    8.71360976E-007     531.48  <-- SCF
      3  -1.68461650E+004                    6.04361059E-009     551.11  <-- SCF
      4  -1.68461650E+004                    1.25753875E-010     572.16  <-- SCF
------------------------------------------------------------------------ <-- SCF
 
Final energy =  -16846.16495906     eV
(energy not corrected for finite basis set)
 
 
 *********************************** Forces ***********************************
 *                                                                            *
 *                        Cartesian components (eV/A)                         *
 * -------------------------------------------------------------------------- *
 *                   x                    y                    z              *
 *                                                                            *
 * O         1     -0.00473             -0.00864             -0.01029         *
 * O         2     -0.00465             -0.00856             -0.01029         *
 * O         3     -0.00340              0.01268              0.00685         *
 * O         4     -0.00346              0.01276              0.00685         *
 * O         5      0.00473              0.00864              0.01029         *
 * O         6      0.00465              0.00856              0.01029         *
 * O         7      0.00340             -0.01268             -0.00685         *
 * O         8      0.00346             -0.01276             -0.00685         *
 * O         9      0.01617             -0.01954             -0.03670         *
 * O        10      0.01627             -0.01943             -0.03667         *
 * O        11     -0.02452             -0.00277             -0.02320         *
 * O        12     -0.02461             -0.00266             -0.02323         *
 * O        13     -0.01617              0.01954              0.03670         *
 * O        14     -0.01627              0.01943              0.03667         *
 * O        15      0.02452              0.00277              0.02320         *
 * O        16      0.02461              0.00266              0.02323         *
 * O        17      0.00354             -0.00784             -0.00351         *
 * O        18      0.00343             -0.00780             -0.00355         *
 * O        19      0.01699             -0.00781              0.01470         *
 * O        20      0.01710             -0.00777              0.01473         *
 * O        21     -0.00354              0.00784              0.00351         *
 * O        22     -0.00343              0.00780              0.00355         *
 * O        23     -0.01699              0.00781             -0.01470         *
 * O        24     -0.01710              0.00777             -0.01473         *
 * Na        1      0.02489              0.01178             -0.00161         *
 * Na        2      0.02489              0.01168             -0.00161         *
 * Na        3     -0.02489             -0.01178              0.00161         *
 * Na        4     -0.02489             -0.01168              0.00161         *
 * Al        1      0.01049              0.00375              0.00105         *
 * Al        2      0.01049              0.00376              0.00105         *
 * Al        3     -0.01049             -0.00375             -0.00105         *
 * Al        4     -0.01049             -0.00376             -0.00105         *
 * Si        1     -0.06178             -0.00011              0.04475         *
 * Si        2     -0.06199             -0.00027              0.04470         *
 * Si        3      0.08609              0.00577              0.04799         *
 * Si        4      0.08630              0.00561              0.04804         *
 * Si        5      0.06178              0.00011             -0.04475         *
 * Si        6      0.06199              0.00027             -0.04470         *
 * Si        7     -0.08609             -0.00577             -0.04799         *
 * Si        8     -0.08630             -0.00561             -0.04804         *
 *                                                                            *
 ******************************************************************************
  
 +------------+-------------+-------------+-----------------+ <-- min BFGS
 |    Step    |   lambda    |   F.delta   |    enthalpy     | <-- min BFGS
 +------------+-------------+-------------+-----------------+ <-- min BFGS
 |  previous  |    0.000000 |    0.000022 |   -16835.311161 | <-- min BFGS
 | trial step |    1.000000 |    0.000020 |   -16835.311726 | <-- min BFGS
 |  line step |    9.707029 |    0.000000 |   -16835.314050 | <-- min BFGS
 +------------+-------------+-------------+-----------------+ <-- min BFGS
  
 BFGS: finished iteration     2 with enthalpy= -1.68353140E+004 eV
  
 +-----------+-----------------+-----------------+------------+-----+ <-- BFGS
 | Parameter |      value      |    tolerance    |    units   | OK? | <-- BFGS
 +-----------+-----------------+-----------------+------------+-----+ <-- BFGS
 |  dE/ion   |   7.222765E-005 |   2.000000E-007 |         eV | No  | <-- BFGS
 |  |F|max   |   9.892315E-002 |   1.000000E-003 |       eV/A | No  | <-- BFGS
 |  |dR|max  |   5.439132E-003 |   1.000000E-003 |          A | No  | <-- BFGS
 +-----------+-----------------+-----------------+------------+-----+ <-- BFGS
  

================================================================================
 Starting BFGS iteration          3 ...
================================================================================
 
Writing model to jadeite_4_30_GPa_cij__1__3.check
  
 +------------+-------------+-------------+-----------------+ <-- min BFGS
 |    Step    |   lambda    |   F.delta   |    enthalpy     | <-- min BFGS
 +------------+-------------+-------------+-----------------+ <-- min BFGS
 |  previous  |    0.000000 |    0.000017 |   -16835.314050 | <-- min BFGS
 +------------+-------------+-------------+-----------------+ <-- min BFGS
  

--------------------------------------------------------------------------------
 BFGS: starting iteration         3 with trial guess (lambda=  1.000000)
--------------------------------------------------------------------------------
 
                           -------------------------------
                                     Cell Contents
                           -------------------------------
 
            xxxxxxxxxxxxxxxxxxxxxxxxxxxxxxxxxxxxxxxxxxxxxxxxxxxxxxxxxxxx
            x  Element    Atom        Fractional coordinates of atoms  x
            x            Number           u          v          w      x
            x----------------------------------------------------------x
            x  O            1         0.109732   0.076802   0.129227   x
            x  O            2         0.609732   0.576801   0.129229   x
            x  O            3         0.890239   0.076915   0.370636   x
            x  O            4         0.390239   0.576914   0.370634   x
            x  O            5         0.890268   0.923198   0.870773   x
            x  O            6         0.390268   0.423199   0.870771   x
            x  O            7         0.109761   0.923085   0.629364   x
            x  O            8         0.609761   0.423086   0.629366   x
            x  O            9         0.361045   0.263459   0.294699   x
            x  O           10         0.861045   0.763459   0.294698   x
            x  O           11         0.638741   0.263668   0.204363   x
            x  O           12         0.138741   0.763668   0.204364   x
            x  O           13         0.638955   0.736541   0.705301   x
            x  O           14         0.138955   0.236541   0.705302   x
            x  O           15         0.361259   0.736332   0.795637   x
            x  O           16         0.861259   0.236332   0.795636   x
            x  O           17         0.353122   0.008386   1.004410   x
            x  O           18         0.853124   0.508383   1.004419   x
            x  O           19         0.646383   0.008461   0.495070   x
            x  O           20         0.146380   0.508458   0.495061   x
            x  O           21         0.646878   0.991614  -0.004410   x
            x  O           22         0.146876   0.491617  -0.004419   x
            x  O           23         0.353617   0.991539   0.504930   x
            x  O           24         0.853620   0.491542   0.504939   x
            x  Na           1         0.000176   0.301424   0.249956   x
            x  Na           2         0.500176   0.801428   0.249956   x
            x  Na           3        -0.000176   0.698576   0.750044   x
            x  Na           4         0.499824   0.198572   0.750044   x
            x  Al           1         0.000234   0.905913   0.250180   x
            x  Al           2         0.500234   0.405914   0.250180   x
            x  Al           3        -0.000234   0.094087   0.749820   x
            x  Al           4         0.499766   0.594086   0.749820   x
            x  Si           1         0.290507   0.093815   0.226983   x
            x  Si           2         0.790508   0.593815   0.226988   x
            x  Si           3         0.709506   0.093927   0.271285   x
            x  Si           4         0.209505   0.593927   0.271280   x
            x  Si           5         0.709493   0.906185   0.773017   x
            x  Si           6         0.209492   0.406185   0.773012   x
            x  Si           7         0.290494   0.906073   0.728715   x
            x  Si           8         0.790495   0.406073   0.728720   x
            xxxxxxxxxxxxxxxxxxxxxxxxxxxxxxxxxxxxxxxxxxxxxxxxxxxxxxxxxxxx
 
 
------------------------------------------------------------------------ <-- SCF
SCF loop      Energy                           Energy gain       Timer   <-- SCF
                                               per atom          (sec)   <-- SCF
------------------------------------------------------------------------ <-- SCF
Initial  -1.68461625E+004                                        582.06  <-- SCF
      1  -1.68461654E+004                    7.02349070E-005     601.78  <-- SCF
      2  -1.68461654E+004                    3.13294202E-008     621.40  <-- SCF
      3  -1.68461654E+004                    2.35189136E-010     641.79  <-- SCF
      4  -1.68461654E+004                    5.72311609E-012     664.12  <-- SCF
------------------------------------------------------------------------ <-- SCF
 
Final energy =  -16846.16536023     eV
(energy not corrected for finite basis set)
 
 
 *********************************** Forces ***********************************
 *                                                                            *
 *                        Cartesian components (eV/A)                         *
 * -------------------------------------------------------------------------- *
 *                   x                    y                    z              *
 *                                                                            *
 * O         1     -0.02110             -0.00877             -0.00785         *
 * O         2     -0.02105             -0.00870             -0.00785         *
 * O         3      0.01718              0.01226              0.00745         *
 * O         4      0.01714              0.01233              0.00745         *
 * O         5      0.02110              0.00877              0.00785         *
 * O         6      0.02105              0.00870              0.00785         *
 * O         7     -0.01718             -0.01226             -0.00745         *
 * O         8     -0.01714             -0.01233             -0.00745         *
 * O         9      0.01660             -0.01599             -0.03356         *
 * O        10      0.01666             -0.01594             -0.03353         *
 * O        11     -0.01968             -0.00612             -0.02195         *
 * O        12     -0.01973             -0.00607             -0.02198         *
 * O        13     -0.01660              0.01599              0.03356         *
 * O        14     -0.01666              0.01594              0.03353         *
 * O        15      0.01968              0.00612              0.02195         *
 * O        16      0.01973              0.00607              0.02198         *
 * O        17      0.00679             -0.00799             -0.00274         *
 * O        18      0.00668             -0.00795             -0.00278         *
 * O        19      0.01661             -0.00618              0.01280         *
 * O        20      0.01672             -0.00615              0.01284         *
 * O        21     -0.00679              0.00799              0.00274         *
 * O        22     -0.00668              0.00795              0.00278         *
 * O        23     -0.01661              0.00618             -0.01280         *
 * O        24     -0.01672              0.00615             -0.01284         *
 * Na        1      0.02472              0.01291             -0.00181         *
 * Na        2      0.02472              0.01282             -0.00181         *
 * Na        3     -0.02472             -0.01291              0.00181         *
 * Na        4     -0.02472             -0.01282              0.00181         *
 * Al        1      0.00784              0.00356             -0.00073         *
 * Al        2      0.00784              0.00356             -0.00073         *
 * Al        3     -0.00784             -0.00356              0.00073         *
 * Al        4     -0.00784             -0.00356              0.00073         *
 * Si        1     -0.04676             -0.00214              0.04311         *
 * Si        2     -0.04689             -0.00224              0.04307         *
 * Si        3      0.06378              0.00689              0.04934         *
 * Si        4      0.06391              0.00678              0.04938         *
 * Si        5      0.04676              0.00214             -0.04311         *
 * Si        6      0.04689              0.00224             -0.04307         *
 * Si        7     -0.06378             -0.00689             -0.04934         *
 * Si        8     -0.06391             -0.00678             -0.04938         *
 *                                                                            *
 ******************************************************************************
  
 +------------+-------------+-------------+-----------------+ <-- min BFGS
 |    Step    |   lambda    |   F.delta   |    enthalpy     | <-- min BFGS
 +------------+-------------+-------------+-----------------+ <-- min BFGS
 |  previous  |    0.000000 |    0.000017 |   -16835.314050 | <-- min BFGS
 | trial step |    1.000000 |    0.000013 |   -16835.314451 | <-- min BFGS
 +------------+-------------+-------------+-----------------+ <-- min BFGS
  

--------------------------------------------------------------------------------
 BFGS: improving iteration         3 with line minimization (lambda=  3.872719)
--------------------------------------------------------------------------------
 
                           -------------------------------
                                     Cell Contents
                           -------------------------------
 
            xxxxxxxxxxxxxxxxxxxxxxxxxxxxxxxxxxxxxxxxxxxxxxxxxxxxxxxxxxxx
            x  Element    Atom        Fractional coordinates of atoms  x
            x            Number           u          v          w      x
            x----------------------------------------------------------x
            x  O            1         0.109783   0.076756   0.129182   x
            x  O            2         0.609783   0.576755   0.129184   x
            x  O            3         0.890175   0.076922   0.370634   x
            x  O            4         0.390174   0.576921   0.370632   x
            x  O            5         0.890217   0.923244   0.870818   x
            x  O            6         0.390217   0.423245   0.870816   x
            x  O            7         0.109825   0.923078   0.629366   x
            x  O            8         0.609826   0.423079   0.629368   x
            x  O            9         0.361070   0.263380   0.294482   x
            x  O           10         0.861069   0.763380   0.294481   x
            x  O           11         0.638666   0.263644   0.204233   x
            x  O           12         0.138666   0.763645   0.204233   x
            x  O           13         0.638930   0.736620   0.705518   x
            x  O           14         0.138931   0.236620   0.705519   x
            x  O           15         0.361334   0.736356   0.795767   x
            x  O           16         0.861334   0.236355   0.795767   x
            x  O           17         0.352950   0.008357   1.004274   x
            x  O           18         0.852952   0.508354   1.004282   x
            x  O           19         0.646499   0.008448   0.495145   x
            x  O           20         0.146497   0.508445   0.495137   x
            x  O           21         0.647050   0.991643  -0.004274   x
            x  O           22         0.147048   0.491646  -0.004282   x
            x  O           23         0.353501   0.991552   0.504855   x
            x  O           24         0.853503   0.491555   0.504863   x
            x  Na           1         0.000247   0.301484   0.249965   x
            x  Na           2         0.500247   0.801487   0.249965   x
            x  Na           3        -0.000247   0.698516   0.750035   x
            x  Na           4         0.499753   0.198513   0.750035   x
            x  Al           1         0.000296   0.905841   0.250225   x
            x  Al           2         0.500295   0.405841   0.250225   x
            x  Al           3        -0.000296   0.094159   0.749775   x
            x  Al           4         0.499705   0.594159   0.749775   x
            x  Si           1         0.290378   0.093807   0.226881   x
            x  Si           2         0.790379   0.593806   0.226886   x
            x  Si           3         0.709664   0.093958   0.271369   x
            x  Si           4         0.209663   0.593957   0.271364   x
            x  Si           5         0.709622   0.906193   0.773119   x
            x  Si           6         0.209621   0.406194   0.773114   x
            x  Si           7         0.290336   0.906042   0.728631   x
            x  Si           8         0.790337   0.406043   0.728636   x
            xxxxxxxxxxxxxxxxxxxxxxxxxxxxxxxxxxxxxxxxxxxxxxxxxxxxxxxxxxxx
 
 
------------------------------------------------------------------------ <-- SCF
SCF loop      Energy                           Energy gain       Timer   <-- SCF
                                               per atom          (sec)   <-- SCF
------------------------------------------------------------------------ <-- SCF
Initial  -1.68461504E+004                                        672.96  <-- SCF
      1  -1.68461658E+004                    3.86274023E-004     692.85  <-- SCF
      2  -1.68461658E+004                    1.73900363E-007     712.70  <-- SCF
      3  -1.68461658E+004                    1.34145201E-009     732.70  <-- SCF
      4  -1.68461658E+004                    2.76875076E-011     754.17  <-- SCF
------------------------------------------------------------------------ <-- SCF
 
Final energy =  -16846.16584906     eV
(energy not corrected for finite basis set)
 
 
 *********************************** Forces ***********************************
 *                                                                            *
 *                        Cartesian components (eV/A)                         *
 * -------------------------------------------------------------------------- *
 *                   x                    y                    z              *
 *                                                                            *
 * O         1     -0.06839             -0.00915             -0.00085         *
 * O         2     -0.06842             -0.00911             -0.00085         *
 * O         3      0.07668              0.01106              0.00918         *
 * O         4      0.07671              0.01110              0.00917         *
 * O         5      0.06839              0.00915              0.00085         *
 * O         6      0.06842              0.00911              0.00085         *
 * O         7     -0.07668             -0.01106             -0.00918         *
 * O         8     -0.07671             -0.01110             -0.00917         *
 * O         9      0.01781             -0.00580             -0.02451         *
 * O        10      0.01776             -0.00591             -0.02449         *
 * O        11     -0.00573             -0.01575             -0.01836         *
 * O        12     -0.00568             -0.01587             -0.01839         *
 * O        13     -0.01781              0.00580              0.02451         *
 * O        14     -0.01776              0.00591              0.02449         *
 * O        15      0.00573              0.01575              0.01836         *
 * O        16      0.00568              0.01587              0.01839         *
 * O        17      0.01621             -0.00840             -0.00051         *
 * O        18      0.01608             -0.00838             -0.00056         *
 * O        19      0.01547             -0.00151              0.00737         *
 * O        20      0.01560             -0.00149              0.00743         *
 * O        21     -0.01621              0.00840              0.00051         *
 * O        22     -0.01608              0.00838              0.00056         *
 * O        23     -0.01547              0.00151             -0.00737         *
 * O        24     -0.01560              0.00149             -0.00743         *
 * Na        1      0.02419              0.01612             -0.00240         *
 * Na        2      0.02419              0.01606             -0.00240         *
 * Na        3     -0.02419             -0.01612              0.00240         *
 * Na        4     -0.02419             -0.01606              0.00240         *
 * Al        1      0.00023              0.00303             -0.00587         *
 * Al        2      0.00023              0.00297             -0.00587         *
 * Al        3     -0.00023             -0.00303              0.00587         *
 * Al        4     -0.00023             -0.00297              0.00587         *
 * Si        1     -0.00342             -0.00793              0.03838         *
 * Si        2     -0.00336             -0.00786              0.03836         *
 * Si        3     -0.00067              0.01015              0.05319         *
 * Si        4     -0.00073              0.01022              0.05321         *
 * Si        5      0.00342              0.00793             -0.03838         *
 * Si        6      0.00336              0.00786             -0.03836         *
 * Si        7      0.00067             -0.01015             -0.05319         *
 * Si        8      0.00073             -0.01022             -0.05321         *
 *                                                                            *
 ******************************************************************************
  
 +------------+-------------+-------------+-----------------+ <-- min BFGS
 |    Step    |   lambda    |   F.delta   |    enthalpy     | <-- min BFGS
 +------------+-------------+-------------+-----------------+ <-- min BFGS
 |  previous  |    0.000000 |    0.000017 |   -16835.314050 | <-- min BFGS
 | trial step |    1.000000 |    0.000013 |   -16835.314451 | <-- min BFGS
 |  line step |    3.872719 |    0.000000 |   -16835.314940 | <-- min BFGS
 +------------+-------------+-------------+-----------------+ <-- min BFGS
  
 BFGS: finished iteration     3 with enthalpy= -1.68353149E+004 eV
  
 +-----------+-----------------+-----------------+------------+-----+ <-- BFGS
 | Parameter |      value      |    tolerance    |    units   | OK? | <-- BFGS
 +-----------+-----------------+-----------------+------------+-----+ <-- BFGS
 |  dE/ion   |   2.225015E-005 |   2.000000E-007 |         eV | No  | <-- BFGS
 |  |F|max   |   7.804832E-002 |   1.000000E-003 |       eV/A | No  | <-- BFGS
 |  |dR|max  |   2.149539E-003 |   1.000000E-003 |          A | No  | <-- BFGS
 +-----------+-----------------+-----------------+------------+-----+ <-- BFGS
  

================================================================================
[...]
            x  O           20         0.147118   0.508741   0.495980   x
            x  O           21         0.647480   0.992003  -0.003399   x
            x  O           22         0.147479   0.492004  -0.003400   x
            x  O           23         0.352882   0.991259   0.504019   x
            x  O           24         0.852882   0.491259   0.504020   x
            x  Na           1         0.001698   0.302336   0.249548   x
            x  Na           2         0.501698   0.802336   0.249548   x
            x  Na           3        -0.001698   0.697664   0.750452   x
            x  Na           4         0.498302   0.197664   0.750452   x
            x  Al           1         0.000293   0.905734   0.250121   x
            x  Al           2         0.500293   0.405734   0.250121   x
            x  Al           3        -0.000293   0.094266   0.749879   x
            x  Al           4         0.499707   0.594266   0.749879   x
            x  Si           1         0.289993   0.093505   0.226123   x
            x  Si           2         0.789993   0.593505   0.226123   x
            x  Si           3         0.710297   0.094420   0.272373   x
            x  Si           4         0.210297   0.594420   0.272373   x
            x  Si           5         0.710007   0.906495   0.773877   x
            x  Si           6         0.210007   0.406495   0.773877   x
            x  Si           7         0.289703   0.905580   0.727627   x
            x  Si           8         0.789703   0.405580   0.727627   x
            xxxxxxxxxxxxxxxxxxxxxxxxxxxxxxxxxxxxxxxxxxxxxxxxxxxxxxxxxxxx
 
 
 BFGS: Final Enthalpy     = -1.68353182E+004 eV
 BFGS: Final <frequency>  =     963.10767 cm-1
 
 ***************************** Symmetrised Forces *****************************
 *                                                                            *
 *                        Cartesian components (eV/A)                         *
 * -------------------------------------------------------------------------- *
 *                   x                    y                    z              *
 *                                                                            *
 * O         1      0.00008              0.00004              0.00024         *
 * O         2      0.00009              0.00004              0.00024         *
 * O         3      0.00008             -0.00037              0.00018         *
 * O         4      0.00008             -0.00037              0.00018         *
 * O         5     -0.00008             -0.00004             -0.00024         *
 * O         6     -0.00009             -0.00004             -0.00024         *
 * O         7     -0.00008              0.00037             -0.00018         *
 * O         8     -0.00008              0.00037             -0.00018         *
 * O         9     -0.00021             -0.00005              0.00015         *
 * O        10     -0.00020             -0.00004              0.00015         *
 * O        11     -0.00019             -0.00015             -0.00036         *
 * O        12     -0.00020             -0.00014             -0.00036         *
 * O        13      0.00021              0.00005             -0.00015         *
 * O        14      0.00020              0.00004             -0.00015         *
 * O        15      0.00019              0.00015              0.00036         *
 * O        16      0.00020              0.00014              0.00036         *
 * O        17      0.00029              0.00040             -0.00008         *
 * O        18      0.00029              0.00040             -0.00008         *
 * O        19      0.00007              0.00018             -0.00027         *
 * O        20      0.00007              0.00018             -0.00027         *
 * O        21     -0.00029             -0.00040              0.00008         *
 * O        22     -0.00029             -0.00040              0.00008         *
 * O        23     -0.00007             -0.00018              0.00027         *
 * O        24     -0.00007             -0.00018              0.00027         *
 * Na        1      0.00023              0.00027              0.00028         *
 * Na        2      0.00023              0.00027              0.00028         *
 * Na        3     -0.00023             -0.00027             -0.00028         *
 * Na        4     -0.00023             -0.00027             -0.00028         *
 * Al        1      0.00029              0.00014              0.00026         *
 * Al        2      0.00029              0.00014              0.00026         *
 * Al        3     -0.00029             -0.00014             -0.00026         *
 * Al        4     -0.00029             -0.00014             -0.00026         *
 * Si        1      0.00029             -0.00012              0.00008         *
 * Si        2      0.00027             -0.00013              0.00008         *
 * Si        3      0.00022              0.00012             -0.00030         *
 * Si        4      0.00024              0.00010             -0.00030         *
 * Si        5     -0.00029              0.00012             -0.00008         *
 * Si        6     -0.00027              0.00013             -0.00008         *
 * Si        7     -0.00022             -0.00012              0.00030         *
 * Si        8     -0.00024             -0.00010              0.00030         *
 *                                                                            *
 ******************************************************************************
 
 *********** Symmetrised Stress Tensor ***********
 *                                               *
 *          Cartesian components (GPa)           *
 * --------------------------------------------- *
 *             x             y             z     *
 *                                               *
 *  x     -2.104117      0.096114      0.041379  *
 *  y      0.096114     -3.404782      0.678110  *
 *  z      0.041379      0.678110     -3.563925  *
 *                                               *
 *  Pressure:    3.0243                          *
 *                                               *
 *************************************************
 
 Pseudo atomic calculation performed for O 2s2 2p4
 
 Converged in 36 iterations to a total energy of -429.6485 eV
 
 
 Pseudo atomic calculation performed for Na 2s2 2p6 3s1
 
 Converged in 33 iterations to a total energy of -1302.8467 eV
 
 
 Pseudo atomic calculation performed for Al 3s2 3p1
 
 Converged in 20 iterations to a total energy of -52.7392 eV
 
 
 Pseudo atomic calculation performed for Si 3s2 3p2
 
 Converged in 21 iterations to a total energy of -101.9044 eV
 
Charge spilling parameter for spin component 1 = 0.85%
 
     Atomic Populations (Mulliken)
     -----------------------------
Species   Ion     s      p      d      f     Total  Charge (e)
==============================================================
  O        1     1.85   5.24   0.00   0.00   7.08    -1.08
  O        2     1.85   5.24   0.00   0.00   7.08    -1.08
  O        3     1.85   5.23   0.00   0.00   7.08    -1.08
  O        4     1.85   5.23   0.00   0.00   7.08    -1.08
  O        5     1.85   5.24   0.00   0.00   7.08    -1.08
  O        6     1.85   5.24   0.00   0.00   7.08    -1.08
  O        7     1.85   5.23   0.00   0.00   7.08    -1.08
  O        8     1.85   5.23   0.00   0.00   7.08    -1.08
  O        9     1.84   5.29   0.00   0.00   7.12    -1.12
  O       10     1.84   5.29   0.00   0.00   7.12    -1.12
  O       11     1.84   5.29   0.00   0.00   7.12    -1.12
  O       12     1.84   5.29   0.00   0.00   7.12    -1.12
  O       13     1.84   5.29   0.00   0.00   7.12    -1.12
  O       14     1.84   5.29   0.00   0.00   7.12    -1.12
  O       15     1.84   5.29   0.00   0.00   7.12    -1.12
  O       16     1.84   5.29   0.00   0.00   7.12    -1.12
  O       17     1.83   5.30   0.00   0.00   7.12    -1.12
  O       18     1.83   5.30   0.00   0.00   7.12    -1.12
  O       19     1.83   5.30   0.00   0.00   7.12    -1.12
  O       20     1.83   5.30   0.00   0.00   7.12    -1.12
  O       21     1.83   5.30   0.00   0.00   7.12    -1.12
  O       22     1.83   5.30   0.00   0.00   7.12    -1.12
  O       23     1.83   5.30   0.00   0.00   7.12    -1.12
  O       24     1.83   5.30   0.00   0.00   7.12    -1.12
  Na       1     2.04   5.78   0.00   0.00   7.82     1.18
  Na       2     2.04   5.78   0.00   0.00   7.82     1.18
  Na       3     2.04   5.78   0.00   0.00   7.82     1.18
  Na       4     2.04   5.78   0.00   0.00   7.82     1.18
  Al       1     0.51   0.92   0.00   0.00   1.43     1.57
  Al       2     0.51   0.92   0.00   0.00   1.43     1.57
  Al       3     0.51   0.92   0.00   0.00   1.43     1.57
  Al       4     0.51   0.92   0.00   0.00   1.43     1.57
  Si       1     0.69   1.36   0.00   0.00   2.05     1.95
  Si       2     0.69   1.36   0.00   0.00   2.05     1.95
  Si       3     0.69   1.36   0.00   0.00   2.05     1.95
  Si       4     0.69   1.36   0.00   0.00   2.05     1.95
  Si       5     0.69   1.36   0.00   0.00   2.05     1.95
  Si       6     0.69   1.36   0.00   0.00   2.05     1.95
  Si       7     0.69   1.36   0.00   0.00   2.05     1.95
  Si       8     0.69   1.36   0.00   0.00   2.05     1.95
==============================================================
 
     Bond                     Population      Length (A)
============================================================
   O 016 --   Si 008               0.76        1.59374
   O 012 --   Si 004               0.76        1.59374
   O 015 --   Si 007               0.76        1.59374
   O 011 --   Si 003               0.76        1.59374
   O 014 --   Si 006               0.76        1.59499
   O 010 --   Si 002               0.76        1.59499
   O 009 --   Si 001               0.76        1.59499
   O 013 --   Si 005               0.76        1.59499
   O 020 --   Si 004               0.56        1.63124
   O 024 --   Si 008               0.56        1.63124
   O 023 --   Si 007               0.56        1.63124
   O 019 --   Si 003               0.56        1.63124
   O 017 --   Si 001               0.56        1.63261
   O 021 --   Si 005               0.56        1.63261
   O 018 --   Si 002               0.56        1.63261
   O 022 --   Si 006               0.56        1.63261
   O 003 --   Si 003               0.59        1.64044
   O 007 --   Si 007               0.59        1.64044
   O 004 --   Si 004               0.59        1.64044
   O 008 --   Si 008               0.59        1.64044
   O 024 --   Si 002               0.58        1.64081
   O 020 --   Si 006               0.58        1.64081
   O 019 --   Si 005               0.58        1.64081
   O 023 --   Si 001               0.58        1.64081
   O 005 --   Si 005               0.59        1.64097
   O 001 --   Si 001               0.59        1.64097
   O 006 --   Si 006               0.59        1.64097
   O 002 --   Si 002               0.59        1.64097
   O 018 --   Si 008               0.58        1.64350
   O 022 --   Si 004               0.58        1.64350
   O 021 --   Si 003               0.58        1.64350
   O 017 --   Si 007               0.58        1.64350
   O 009 --   Al 002               0.42        1.85823
   O 013 --   Al 004               0.42        1.85823
   O 014 --   Al 003               0.42        1.85823
   O 010 --   Al 001               0.42        1.85823
   O 011 --   Al 002               0.42        1.85971
   O 015 --   Al 004               0.42        1.85971
   O 012 --   Al 001               0.42        1.85971
   O 016 --   Al 003               0.42        1.85971
   O 003 --   Al 003               0.33        1.94416
   O 007 --   Al 001               0.33        1.94416
   O 008 --   Al 002               0.33        1.94416
   O 004 --   Al 004               0.33        1.94416
   O 005 --   Al 001               0.32        1.94554
   O 001 --   Al 003               0.32        1.94554
   O 006 --   Al 002               0.32        1.94554
   O 002 --   Al 004               0.32        1.94554
   O 006 --   Al 004               0.31        1.99535
   O 002 --   Al 002               0.31        1.99535
   O 001 --   Al 001               0.31        1.99535
   O 005 --   Al 003               0.31        1.99535
   O 008 --   Al 004               0.31        2.01216
   O 004 --   Al 002               0.31        2.01216
   O 007 --   Al 003               0.31        2.01216
   O 003 --   Al 001               0.31        2.01216
   O 005 --   Na 003              -0.01        2.36190
   O 001 --   Na 001              -0.01        2.36190
   O 006 --   Na 004              -0.01        2.36191
   O 002 --   Na 002              -0.01        2.36191
   O 003 --   Na 001              -0.01        2.36249
   O 007 --   Na 003              -0.01        2.36249
   O 004 --   Na 002              -0.01        2.36249
   O 008 --   Na 004              -0.01        2.36249
   O 022 --   Na 003              -0.04        2.37536
   O 018 --   Na 001              -0.04        2.37536
   O 017 --   Na 002              -0.04        2.37536
   O 021 --   Na 004              -0.04        2.37536
   O 024 --   Na 003              -0.04        2.37549
   O 020 --   Na 001              -0.04        2.37549
   O 023 --   Na 004              -0.04        2.37550
   O 019 --   Na 002              -0.04        2.37550
   O 014 --   Na 001              -0.06        2.41376
   O 010 --   Na 003              -0.06        2.41376
   O 013 --   Na 002              -0.06        2.41377
   O 009 --   Na 004              -0.06        2.41377
   O 016 --   Na 001              -0.05        2.41582
   O 012 --   Na 003              -0.05        2.41582
   O 011 --   Na 004              -0.05        2.41582
   O 015 --   Na 002              -0.05        2.41582
   O 003 --    O 007              -0.10        2.48448
   O 004 --    O 008              -0.10        2.48448
   O 001 --    O 005              -0.10        2.48676
   O 002 --    O 006              -0.10        2.48676
   O 010 --    O 024              -0.10        2.57578
   O 014 --    O 020              -0.10        2.57578
   O 009 --    O 023              -0.10        2.57578
   O 013 --    O 019              -0.10        2.57578
   O 016 --    O 018              -0.10        2.58553
   O 012 --    O 022              -0.10        2.58553
   O 015 --    O 017              -0.10        2.58553
   O 011 --    O 021              -0.10        2.58553
   O 018 --    O 024              -0.17        2.61279
   O 020 --    O 022              -0.17        2.61279
   O 017 --    O 023              -0.17        2.61279
   O 019 --    O 021              -0.17        2.61279
   O 012 --    O 020              -0.09        2.63995
   O 016 --    O 024              -0.09        2.63995
   O 015 --    O 023              -0.09        2.63995
   O 011 --    O 019              -0.09        2.63995
   O 005 --    O 019              -0.08        2.64357
   O 001 --    O 023              -0.08        2.64357
   O 002 --    O 024              -0.08        2.64357
   O 006 --    O 020              -0.08        2.64357
   O 004 --    O 020              -0.08        2.64534
   O 008 --    O 024              -0.08        2.64534
   O 007 --    O 023              -0.08        2.64534
   O 003 --    O 019              -0.08        2.64534
   O 003 --    O 021              -0.08        2.64653
   O 007 --    O 017              -0.08        2.64653
   O 004 --    O 022              -0.08        2.64653
   O 008 --    O 018              -0.08        2.64653
   O 002 --    O 018              -0.08        2.64657
   O 006 --    O 022              -0.08        2.64657
   O 001 --    O 017              -0.08        2.64657
   O 005 --    O 021              -0.08        2.64657
   O 014 --    O 022              -0.08        2.65327
   O 010 --    O 018              -0.08        2.65327
   O 009 --    O 017              -0.08        2.65327
   O 013 --    O 021              -0.08        2.65327
   O 005 --    O 010              -0.08        2.67226
   O 001 --    O 014              -0.08        2.67226
   O 006 --    O 009              -0.08        2.67226
   O 002 --    O 013              -0.08        2.67226
   O 007 --    O 012              -0.07        2.69501
   O 003 --    O 016              -0.07        2.69501
   O 004 --    O 015              -0.07        2.69501
   O 008 --    O 011              -0.07        2.69501
   O 002 --    O 011              -0.06        2.70822
   O 006 --    O 015              -0.06        2.70822
   O 001 --    O 012              -0.06        2.70822
   O 005 --    O 016              -0.06        2.70822
   O 017 --   Na 004              -0.02        2.70831
   O 021 --   Na 002              -0.02        2.70831
   O 018 --   Na 003              -0.02        2.70831
   O 022 --   Na 001              -0.02        2.70831
   O 008 --    O 013              -0.05        2.72737
   O 004 --    O 009              -0.05        2.72737
   O 007 --    O 014              -0.05        2.72737
   O 003 --    O 010              -0.05        2.72737
   O 006 --    O 008              -0.05        2.72957
   O 002 --    O 004              -0.05        2.72957
   O 005 --    O 007              -0.05        2.72957
   O 001 --    O 003              -0.05        2.72957
   O 023 --   Na 002              -0.02        2.74461
   O 019 --   Na 004              -0.02        2.74461
   O 020 --   Na 003              -0.02        2.74462
   O 024 --   Na 001              -0.02        2.74462
   O 006 --    O 014              -0.06        2.78473
   O 002 --    O 010              -0.06        2.78473
   O 005 --    O 013              -0.06        2.78473
   O 001 --    O 009              -0.06        2.78473
   O 004 --    O 012              -0.06        2.78710
   O 008 --    O 016              -0.06        2.78710
   O 007 --    O 015              -0.06        2.78710
   O 003 --    O 011              -0.06        2.78710
   O 019 --    O 023              -0.03        2.80580
   O 020 --    O 024              -0.03        2.80580
   O 009 --    O 011              -0.05        2.80703
   O 013 --    O 015              -0.05        2.80703
   O 014 --    O 016              -0.05        2.80703
   O 010 --    O 012              -0.05        2.80703
   O 017 --    O 021              -0.03        2.81067
   O 018 --    O 022              -0.03        2.81067
   O 005 --    O 012              -0.04        2.82046
   O 001 --    O 016              -0.04        2.82046
   O 006 --    O 011              -0.04        2.82046
   O 002 --    O 015              -0.04        2.82046
   O 007 --    O 010              -0.04        2.83294
   O 003 --    O 014              -0.04        2.83294
   O 008 --    O 009              -0.04        2.83294
   O 004 --    O 013              -0.04        2.83294
   O 014 --    O 017              -0.03        2.90586
   O 010 --    O 021              -0.03        2.90586
   O 013 --    O 018              -0.03        2.90586
   O 009 --    O 022              -0.03        2.90586
   O 012 --    O 023              -0.02        2.91500
   O 016 --    O 019              -0.02        2.91500
   O 015 --    O 020              -0.02        2.91500
   O 011 --    O 024              -0.02        2.91500
   O 002 --    O 008              -0.06        2.91620
   O 004 --    O 006              -0.06        2.91620
   O 001 --    O 007              -0.06        2.91620
   O 003 --    O 005              -0.06        2.91620
============================================================
 
 
Writing model to jadeite_4_30_GPa_cij__1__3.check
 
Writing analysis data to jadeite_4_30_GPa_cij__1__3.castep_bin
Initialisation time =      2.32 s
Calculation time    =   3935.83 s
Finalisation time   =     33.95 s
Total time          =   3972.10 s
Peak Memory Use     = 283832 kB
