 +-------------------------------------------------+
 |                                                 |
 |      CCC   AA    SSS  TTTTT  EEEEE  PPPP        |
 |     C     A  A  S       T    E      P   P       |
 |     C     AAAA   SS     T    EEE    PPPP        |
 |     C     A  A     S    T    E      P           |
 |      CCC  A  A  SSS     T    EEEEE  P           |
 |                                                 |
 +-------------------------------------------------+
 |                                                 |
 | Welcome to Academic Release CASTEP version 5.02 |
 | Ab Initio Total Energy Program                  |
 |                                                 |
 | Authors:                                        |
 | M. Segall, M. Probert, C. Pickard, P. Hasnip,   |
 | S. Clark, K. Refson, M. Payne                   |
 |                                                 |
 | Contributors:                                   |
 | P. Lindan, P. Haynes, J. White, V. Milman,      |
 | N. Govind, M. Gibson, P. Tulip, V. Cocula,      |
 | B. Montanari, D. Quigley, M. Glover,            |
 | L. Bernasconi, A. Perlov, M. Plummer            |
 |                                                 |
 | Copyright (c) 2000 - 2009                       |
 |                                                 |
 |     Distributed under the terms of an           |
 |     Agreement between the United Kingdom        |
 |     Car-Parrinello (UKCP) Consortium,           |
 |     Daresbury Laboratory and Accelrys, Inc.     |
 |                                                 |
 | Please cite                                     |
 |                                                 |
 |     "First principles methods using CASTEP"     |
 |                                                 |
 |         Zeitschrift fuer Kristallographie       |
 |           220(5-6) pp. 567-570 (2005)           |
 |                                                 |
 | S. J. Clark, M. D. Segall, C. J. Pickard,       |
 | P. J. Hasnip, M. J. Probert, K. Refson,         |
 | M. C. Payne                                     |
 |                                                 |
 |       in all publications arising from          |
 |              your use of CASTEP                 |
 |                                                 |
 +-------------------------------------------------+
 
 
 Pseudo atomic calculation performed for O 2s2 2p4
 
 Converged in 36 iterations to a total energy of -429.6485 eV
 
 
 Pseudo atomic calculation performed for Na 2s2 2p6 3s1
 
 Converged in 33 iterations to a total energy of -1302.8467 eV
 
 
 Pseudo atomic calculation performed for Al 3s2 3p1
 
 Converged in 20 iterations to a total energy of -52.7392 eV
 
 
 Pseudo atomic calculation performed for Si 3s2 3p2
 
 Converged in 21 iterations to a total energy of -101.9044 eV
 
Calculation parallelised over   36 nodes.
K-points are distributed over    3 groups, each containing   12 nodes.

 ************************************ Title ************************************
 

 ***************************** General Parameters ******************************
  
 output verbosity                               : normal  (1)
 write checkpoint data to                       : jadeite_4_30_GPa_cij__3__2.check
 type of calculation                            : geometry optimization
 stress calculation                             : on
 density difference calculation                 : off
 electron localisation func (ELF) calculation   : off
 Hirshfeld analysis                             : off
 unlimited duration calculation
 timing information                             : on
 memory usage estimate                          : on
 write final potential to formatted file        : off
 write final density to formatted file          : off
  
 output         length unit                     : A
 output           mass unit                     : amu
 output           time unit                     : ps
 output         charge unit                     : e
 output         energy unit                     : eV
 output          force unit                     : eV/A
 output       velocity unit                     : A/ps
 output       pressure unit                     : GPa
 output     inv_length unit                     : 1/A
 output      frequency unit                     : cm-1
 output force constant unit                     : eV/A**2
 output         volume unit                     : A**3
 output   IR intensity unit                     : (D/A)**2/amu
 output         dipole unit                     : D
 output         efield unit                     : eV/A/e
  
 wavefunctions paging                           : none
 data distribution                              : optimal for this architecture
 optimization strategy                          : maximize speed(+++)

 *********************** Exchange-Correlation Parameters ***********************
  
 using functional                               : Perdew Burke Ernzerhof
 Divergence correction                          : off
 DFT+D: Semi-empirical dispersion correction    : off

 ************************* Pseudopotential Parameters **************************
  
 pseudopotential representation                 : reciprocal space
 <beta|phi> representation                      : reciprocal space

 **************************** Basis Set Parameters *****************************
  
 plane wave basis set cut-off                   :   700.0000   eV
 finite basis set correction                    : none

 **************************** Electronic Parameters ****************************
  
 number of  electrons                           :  224.0    
 net charge of system                           :  0.000    
 net spin   of system                           :  0.000    
 number of  up  spins                           :  112.0    
 number of down spins                           :  112.0    
 treating system as non-spin-polarized
 number of bands                                :        112

 ********************* Electronic Minimization Parameters **********************
  
 Method: Treating system as non-metallic,
         and number of  SD  steps               :          1
         and number of  CG  steps               :          4
  
 total energy / atom convergence tol.           : 0.1000E-07   eV
 max force / atom convergence tol.              : ignored
 convergence tolerance window                   :          3   cycles
 max. number of SCF cycles                      :        100

 *********************** Population Analysis Parameters ************************
  
 Population analysis with cutoff                :  3.000       A

 ********************** Geometry Optimization Parameters ***********************
  
 optimization method                            : BFGS
 variable cell method                           : fixed basis quality
 max. number of steps                           :        300
 estimated bulk modulus                         :  500.0       GPa
 estimated <frequency>                          :  1668.       cm-1
 line minimiser tolerance                       :     0.4000
 total energy convergence tolerance             : 0.2000E-06   eV/atom
        max ionic |force| tolerance             : 0.1000E-02   eV/A
 max ionic |displacement| tolerance             : 0.1000E-02   A
   max |stress component| tolerance             : 0.1000E-02   GPa
 convergence tolerance window                   :          2   steps
 backup results every                           :          1   steps

 *******************************************************************************
  
 
                           -------------------------------
                                      Unit Cell
                           -------------------------------
        Real Lattice(A)                      Reciprocal Lattice(1/A)
   8.9813393   0.0000000  -2.8290832        0.6995822   0.0000000   0.0000000
   0.0000000   8.5270160   0.0000000        0.0000000   0.7368563   0.0000000
   0.0000000   0.0000000   5.2199179        0.3791585   0.0000000   1.2036943
 
                       Lattice parameters(A)       Cell Angles
                    a =    9.416378          alpha =   90.000000
                    b =    8.527016          beta  =  107.484203
                    c =    5.219918          gamma =   90.000000
 
                       Current cell volume =  399.762315       A**3
 
                           -------------------------------
                                     Cell Contents
                           -------------------------------
                         Total number of ions in cell =   40
                      Total number of species in cell =    4
                        Max number of any one species =   24
 
            xxxxxxxxxxxxxxxxxxxxxxxxxxxxxxxxxxxxxxxxxxxxxxxxxxxxxxxxxxxx
            x  Element    Atom        Fractional coordinates of atoms  x
            x            Number           u          v          w      x
            x----------------------------------------------------------x
            x  O            1         0.109277   0.076953   0.129205   x
            x  O            2         0.609279   0.576951   0.129208   x
            x  O            3         0.890723   0.076953   0.370795   x
            x  O            4         0.390721   0.576951   0.370792   x
            x  O            5         0.890723   0.923047   0.870795   x
            x  O            6         0.390721   0.423048   0.870792   x
            x  O            7         0.109277   0.923047   0.629205   x
            x  O            8         0.609279   0.423048   0.629208   x
            x  O            9         0.361047   0.263746   0.295383   x
            x  O           10         0.861046   0.763747   0.295382   x
            x  O           11         0.638953   0.263746   0.204617   x
            x  O           12         0.138954   0.763747   0.204618   x
            x  O           13         0.638953   0.736253   0.704617   x
            x  O           14         0.138954   0.236253   0.704618   x
            x  O           15         0.361047   0.736253   0.795383   x
            x  O           16         0.861046   0.236253   0.795382   x
            x  O           17         0.354029   0.008469   1.005059   x
            x  O           18         0.854032   0.508466   1.005069   x
            x  O           19         0.645971   0.008469   0.494941   x
            x  O           20         0.145968   0.508466   0.494931   x
            x  O           21         0.645971   0.991531  -0.005059   x
            x  O           22         0.145968   0.491534  -0.005069   x
            x  O           23         0.354029   0.991531   0.505059   x
            x  O           24         0.854032   0.491534   0.505069   x
            x  Na           1         0.000000   0.301230   0.250000   x
            x  Na           2         0.500000   0.801235   0.250000   x
            x  Na           3         0.000000   0.698770   0.750000   x
            x  Na           4         0.500000   0.198765   0.750000   x
            x  Al           1         0.000000   0.906276   0.250000   x
            x  Al           2         0.500000   0.406276   0.250000   x
            x  Al           3         0.000000   0.093724   0.750000   x
            x  Al           4         0.500000   0.593723   0.750000   x
            x  Si           1         0.290869   0.093825   0.228100   x
            x  Si           2         0.790871   0.593824   0.228106   x
            x  Si           3         0.709131   0.093825   0.271900   x
            x  Si           4         0.209129   0.593824   0.271894   x
            x  Si           5         0.709131   0.906175   0.771900   x
            x  Si           6         0.209129   0.406176   0.771894   x
            x  Si           7         0.290869   0.906175   0.728100   x
            x  Si           8         0.790871   0.406176   0.728106   x
            xxxxxxxxxxxxxxxxxxxxxxxxxxxxxxxxxxxxxxxxxxxxxxxxxxxxxxxxxxxx
 
 
                         No user defined ionic velocities
 
                           -------------------------------
                                   Details of Species
                           -------------------------------
 
                               Mass of species in AMU
                                    O   15.9994000
                                    Na   22.9897700
                                    Al   26.9815400
                                    Si   28.0855000
 
                          Electric Quadrupole Moment (Barn)
                                    O   -0.0255800 Isotope 17
                                    Na    0.1040000 Isotope 23
                                    Al    0.1466000 Isotope 27
                                    Si    1.0000000 No Isotope Defined
 
                          Files used for pseudopotentials:
                                    O O_00PBE.usp
                                    Na Na_00PBE.usp
                                    Al Al_00PBE.usp
                                    Si Si_00PBE.usp
 
                           -------------------------------
                              k-Points For BZ Sampling
                           -------------------------------
                       MP grid size for SCF calculation is  2  2  3
                         Number of kpoints used = 3
 
             +++++++++++++++++++++++++++++++++++++++++++++++++++++++
             +  Number       Fractional coordinates        Weight  +
             +-----------------------------------------------------+
             +     1  -0.250000  -0.250000   0.333333   0.3333333  +
             +     2   0.250000   0.250000   0.000000   0.3333333  +
             +     3   0.250000   0.250000   0.333333   0.3333333  +
             +++++++++++++++++++++++++++++++++++++++++++++++++++++++
 
                           -------------------------------
                               Symmetry and Constraints
                           -------------------------------
 
                      Number of symmetry operations   = 4
                      Number of ionic constraints     = 3
                      Maximum deviation from symmetry = 0.173858E-14     ANG
               Point group of crystal =     5: C2h, 2/m, 2/m
           Set iprint > 1 for details on symmetry rotations/translations
 
                          Centre of mass is constrained
             Set iprint > 1 for details of linear ionic constraints
 
                         Number of cell constraints= 6
                         Cell constraints are:  0 0 0 0 0 0
 
                         External pressure/stress (GPa)
                          4.30000   0.00000   0.00000
                                    4.30000   0.00000
                                              4.30000
  
+---------------- MEMORY AND SCRATCH DISK ESTIMATES PER NODE -----------------+
|                                                     Memory          Disk    |
| Model and support data                               59.9 MB         0.0 MB |
| Electronic energy minimisation requirements          16.6 MB         0.0 MB |
|                                               ----------------------------- |
| Approx. total storage required per node              76.6 MB         0.0 MB |
|                                                                             |
| Requirements will fluctuate during execution and may exceed these estimates |
+-----------------------------------------------------------------------------+
------------------------------------------------------------------------ <-- SCF
SCF loop      Energy                           Energy gain       Timer   <-- SCF
                                               per atom          (sec)   <-- SCF
------------------------------------------------------------------------ <-- SCF
Initial  -1.66073862E+003                                          4.92  <-- SCF
      1  -1.64320101E+004                    3.69281788E+002      16.75  <-- SCF
      2  -1.68107569E+004                    9.46866994E+000      28.13  <-- SCF
      3  -1.68425122E+004                    7.93880537E-001      39.49  <-- SCF
      4  -1.68460364E+004                    8.81067794E-002      50.81  <-- SCF
      5  -1.68460645E+004                    7.02785903E-004      62.09  <-- SCF
      6  -1.68460651E+004                    1.35559592E-005      73.37  <-- SCF
      7  -1.68460651E+004                    3.86549856E-007      84.59  <-- SCF
      8  -1.68460651E+004                    1.17298358E-008      95.87  <-- SCF
      9  -1.68460651E+004                    3.66588788E-010     108.10  <-- SCF
     10  -1.68460651E+004                    1.17555898E-011     119.57  <-- SCF
------------------------------------------------------------------------ <-- SCF
 
Final energy =  -16846.06509992     eV
(energy not corrected for finite basis set)
 
 
Writing model to jadeite_4_30_GPa_cij__3__2.check
 
+---------------- MEMORY AND SCRATCH DISK ESTIMATES PER NODE -----------------+
|                                                     Memory          Disk    |
| Model and support data                               53.0 MB         0.0 MB |
| Geometry minimisation requirements                   19.3 MB         0.0 MB |
|                                               ----------------------------- |
| Approx. total storage required per node              72.3 MB         0.0 MB |
|                                                                             |
| Requirements will fluctuate during execution and may exceed these estimates |
+-----------------------------------------------------------------------------+
 
 
 *********************************** Forces ***********************************
 *                                                                            *
 *                        Cartesian components (eV/A)                         *
 * -------------------------------------------------------------------------- *
 *                   x                    y                    z              *
 *                                                                            *
 * O         1      0.01366              0.02370              0.00340         *
 * O         2      0.01351              0.02376              0.00336         *
 * O         3     -0.01366              0.02370             -0.00340         *
 * O         4     -0.01351              0.02376             -0.00336         *
 * O         5     -0.01366             -0.02370             -0.00340         *
 * O         6     -0.01351             -0.02376             -0.00336         *
 * O         7      0.01366             -0.02370              0.00340         *
 * O         8      0.01351             -0.02376              0.00336         *
 * O         9      0.05171              0.14296              0.01447         *
 * O        10      0.05184              0.14305              0.01447         *
 * O        11     -0.05171              0.14296             -0.01447         *
 * O        12     -0.05184              0.14305             -0.01447         *
 * O        13     -0.05171             -0.14296             -0.01447         *
 * O        14     -0.05184             -0.14305             -0.01447         *
 * O        15      0.05171             -0.14296              0.01447         *
 * O        16      0.05184             -0.14305              0.01447         *
 * O        17      0.01497              0.02045              0.00784         *
 * O        18      0.01492              0.02052              0.00780         *
 * O        19     -0.01497              0.02045             -0.00784         *
 * O        20     -0.01492              0.02052             -0.00780         *
 * O        21     -0.01497             -0.02045             -0.00784         *
 * O        22     -0.01492             -0.02052             -0.00780         *
 * O        23      0.01497             -0.02045              0.00784         *
 * O        24      0.01492             -0.02052              0.00780         *
 * Na        1      0.00000              0.00536              0.00000         *
 * Na        2      0.00000              0.00524              0.00000         *
 * Na        3      0.00000             -0.00536              0.00000         *
 * Na        4      0.00000             -0.00524              0.00000         *
 * Al        1      0.00000              0.03138              0.00000         *
 * Al        2      0.00000              0.03148              0.00000         *
 * Al        3      0.00000             -0.03138              0.00000         *
 * Al        4      0.00000             -0.03148              0.00000         *
 * Si        1     -0.08229             -0.09471             -0.01291         *
 * Si        2     -0.08250             -0.09469             -0.01293         *
 * Si        3      0.08229             -0.09471              0.01291         *
 * Si        4      0.08250             -0.09469              0.01293         *
 * Si        5      0.08229              0.09471              0.01291         *
 * Si        6      0.08250              0.09469              0.01293         *
 * Si        7     -0.08229              0.09471             -0.01291         *
 * Si        8     -0.08250              0.09469             -0.01293         *
 *                                                                            *
 ******************************************************************************
 BFGS: finished iteration     0 with enthalpy= -1.68353361E+004 eV
  
 +-----------+-----------------+-----------------+------------+-----+ <-- BFGS
 | Parameter |      value      |    tolerance    |    units   | OK? | <-- BFGS
 +-----------+-----------------+-----------------+------------+-----+ <-- BFGS
 |  dE/ion   |   0.000000E+000 |   2.000000E-007 |         eV | No  | <-- BFGS
 |  |F|max   |   1.528372E-001 |   1.000000E-003 |       eV/A | No  | <-- BFGS
 |  |dR|max  |   0.000000E+000 |   1.000000E-003 |          A | No  | <-- BFGS
 +-----------+-----------------+-----------------+------------+-----+ <-- BFGS
  

================================================================================
 Starting BFGS iteration          1 ...
================================================================================
 
Writing model to jadeite_4_30_GPa_cij__3__2.check
  
 +------------+-------------+-------------+-----------------+ <-- min BFGS
 |    Step    |   lambda    |   F.delta   |    enthalpy     | <-- min BFGS
 +------------+-------------+-------------+-----------------+ <-- min BFGS
 |  previous  |    0.000000 |    0.000059 |   -16835.336083 | <-- min BFGS
 +------------+-------------+-------------+-----------------+ <-- min BFGS
  

--------------------------------------------------------------------------------
 BFGS: starting iteration         1 with trial guess (lambda=  1.000000)
--------------------------------------------------------------------------------
 
                           -------------------------------
                                     Cell Contents
                           -------------------------------
 
            xxxxxxxxxxxxxxxxxxxxxxxxxxxxxxxxxxxxxxxxxxxxxxxxxxxxxxxxxxxx
            x  Element    Atom        Fractional coordinates of atoms  x
            x            Number           u          v          w      x
            x----------------------------------------------------------x
            x  O            1         0.109284   0.076966   0.129212   x
            x  O            2         0.609286   0.576965   0.129215   x
            x  O            3         0.890716   0.076966   0.370788   x
            x  O            4         0.390714   0.576965   0.370785   x
            x  O            5         0.890716   0.923034   0.870788   x
            x  O            6         0.390714   0.423035   0.870785   x
            x  O            7         0.109284   0.923034   0.629212   x
            x  O            8         0.609286   0.423035   0.629215   x
            x  O            9         0.361075   0.263828   0.295411   x
            x  O           10         0.861074   0.763828   0.295411   x
            x  O           11         0.638925   0.263828   0.204589   x
            x  O           12         0.138926   0.763828   0.204589   x
            x  O           13         0.638925   0.736172   0.704589   x
            x  O           14         0.138926   0.236172   0.704589   x
            x  O           15         0.361075   0.736172   0.795411   x
            x  O           16         0.861074   0.236172   0.795411   x
            x  O           17         0.354037   0.008481   1.005071   x
            x  O           18         0.854040   0.508478   1.005081   x
            x  O           19         0.645963   0.008481   0.494929   x
            x  O           20         0.145960   0.508478   0.494919   x
            x  O           21         0.645963   0.991519  -0.005071   x
            x  O           22         0.145960   0.491522  -0.005081   x
            x  O           23         0.354037   0.991519   0.505071   x
            x  O           24         0.854040   0.491522   0.505081   x
            x  Na           1         0.000000   0.301233   0.250000   x
            x  Na           2         0.500000   0.801237   0.250000   x
            x  Na           3         0.000000   0.698767   0.750000   x
            x  Na           4         0.500000   0.198763   0.750000   x
            x  Al           1         0.000000   0.906294   0.250000   x
            x  Al           2         0.500000   0.406294   0.250000   x
            x  Al           3         0.000000   0.093706   0.750000   x
            x  Al           4         0.500000   0.593706   0.750000   x
            x  Si           1         0.290825   0.093771   0.228064   x
            x  Si           2         0.790827   0.593770   0.228070   x
            x  Si           3         0.709175   0.093771   0.271936   x
            x  Si           4         0.209173   0.593770   0.271930   x
            x  Si           5         0.709175   0.906229   0.771936   x
            x  Si           6         0.209173   0.406230   0.771930   x
            x  Si           7         0.290825   0.906229   0.728064   x
            x  Si           8         0.790827   0.406230   0.728070   x
            xxxxxxxxxxxxxxxxxxxxxxxxxxxxxxxxxxxxxxxxxxxxxxxxxxxxxxxxxxxx
 
 
------------------------------------------------------------------------ <-- SCF
SCF loop      Energy                           Energy gain       Timer   <-- SCF
                                               per atom          (sec)   <-- SCF
------------------------------------------------------------------------ <-- SCF
Initial  -1.68460601E+004                                        125.95  <-- SCF
      1  -1.68460664E+004                    1.57770534E-004     137.31  <-- SCF
      2  -1.68460664E+004                    6.30585305E-008     148.06  <-- SCF
      3  -1.68460664E+004                    8.34492198E-010     159.05  <-- SCF
      4  -1.68460664E+004                    1.78654029E-011     170.80  <-- SCF
------------------------------------------------------------------------ <-- SCF
 
Final energy =  -16846.06641647     eV
(energy not corrected for finite basis set)
 
 
 *********************************** Forces ***********************************
 *                                                                            *
 *                        Cartesian components (eV/A)                         *
 * -------------------------------------------------------------------------- *
 *                   x                    y                    z              *
 *                                                                            *
 * O         1      0.00396              0.02057              0.00548         *
 * O         2      0.00381              0.02062              0.00544         *
 * O         3     -0.00396              0.02057             -0.00548         *
 * O         4     -0.00381              0.02062             -0.00544         *
 * O         5     -0.00396             -0.02057             -0.00548         *
 * O         6     -0.00381             -0.02062             -0.00544         *
 * O         7      0.00396             -0.02057              0.00548         *
 * O         8      0.00381             -0.02062              0.00544         *
 * O         9      0.03004              0.09995              0.01382         *
 * O        10      0.03014              0.09999              0.01382         *
 * O        11     -0.03004              0.09995             -0.01382         *
 * O        12     -0.03014              0.09999             -0.01382         *
 * O        13     -0.03004             -0.09995             -0.01382         *
 * O        14     -0.03014             -0.09999             -0.01382         *
 * O        15      0.03004             -0.09995              0.01382         *
 * O        16      0.03014             -0.09999              0.01382         *
 * O        17      0.01445              0.01656              0.00370         *
 * O        18      0.01438              0.01663              0.00366         *
 * O        19     -0.01445              0.01656             -0.00370         *
 * O        20     -0.01438              0.01663             -0.00366         *
 * O        21     -0.01445             -0.01656             -0.00370         *
 * O        22     -0.01438             -0.01663             -0.00366         *
 * O        23      0.01445             -0.01656              0.00370         *
 * O        24      0.01438             -0.01663              0.00366         *
 * Na        1      0.00000              0.00504              0.00000         *
 * Na        2      0.00000              0.00492              0.00000         *
 * Na        3      0.00000             -0.00504              0.00000         *
 * Na        4      0.00000             -0.00492              0.00000         *
 * Al        1      0.00000              0.02749              0.00000         *
 * Al        2      0.00000              0.02758              0.00000         *
 * Al        3      0.00000             -0.02749              0.00000         *
 * Al        4      0.00000             -0.02758              0.00000         *
 * Si        1     -0.05382             -0.04933             -0.00611         *
 * Si        2     -0.05399             -0.04928             -0.00612         *
 * Si        3      0.05382             -0.04933              0.00611         *
 * Si        4      0.05399             -0.04928              0.00612         *
 * Si        5      0.05382              0.04933              0.00611         *
 * Si        6      0.05399              0.04928              0.00612         *
 * Si        7     -0.05382              0.04933             -0.00611         *
 * Si        8     -0.05399              0.04928             -0.00612         *
 *                                                                            *
 ******************************************************************************
  
 +------------+-------------+-------------+-----------------+ <-- min BFGS
 |    Step    |   lambda    |   F.delta   |    enthalpy     | <-- min BFGS
 +------------+-------------+-------------+-----------------+ <-- min BFGS
 |  previous  |    0.000000 |    0.000059 |   -16835.336083 | <-- min BFGS
 | trial step |    1.000000 |    0.000038 |   -16835.337399 | <-- min BFGS
 +------------+-------------+-------------+-----------------+ <-- min BFGS
  

--------------------------------------------------------------------------------
 BFGS: improving iteration         1 with line minimization (lambda=  2.863394)
--------------------------------------------------------------------------------
 
                           -------------------------------
                                     Cell Contents
                           -------------------------------
 
            xxxxxxxxxxxxxxxxxxxxxxxxxxxxxxxxxxxxxxxxxxxxxxxxxxxxxxxxxxxx
            x  Element    Atom        Fractional coordinates of atoms  x
            x            Number           u          v          w      x
            x----------------------------------------------------------x
            x  O            1         0.109298   0.076991   0.129225   x
            x  O            2         0.609300   0.576990   0.129228   x
            x  O            3         0.890702   0.076991   0.370775   x
            x  O            4         0.390700   0.576990   0.370772   x
            x  O            5         0.890702   0.923009   0.870775   x
            x  O            6         0.390700   0.423010   0.870772   x
            x  O            7         0.109298   0.923009   0.629225   x
            x  O            8         0.609300   0.423010   0.629228   x
            x  O            9         0.361127   0.263979   0.295465   x
            x  O           10         0.861126   0.763979   0.295464   x
            x  O           11         0.638873   0.263979   0.204535   x
            x  O           12         0.138874   0.763979   0.204536   x
            x  O           13         0.638873   0.736021   0.704535   x
            x  O           14         0.138874   0.236021   0.704536   x
            x  O           15         0.361127   0.736021   0.795465   x
            x  O           16         0.861126   0.236021   0.795464   x
            x  O           17         0.354052   0.008503   1.005092   x
            x  O           18         0.854055   0.508499   1.005102   x
            x  O           19         0.645948   0.008503   0.494908   x
            x  O           20         0.145945   0.508499   0.494898   x
            x  O           21         0.645948   0.991497  -0.005092   x
            x  O           22         0.145945   0.491501  -0.005102   x
            x  O           23         0.354052   0.991497   0.505092   x
            x  O           24         0.854055   0.491501   0.505102   x
            x  Na           1         0.000000   0.301239   0.250000   x
            x  Na           2         0.500000   0.801243   0.250000   x
            x  Na           3         0.000000   0.698761   0.750000   x
            x  Na           4         0.500000   0.198757   0.750000   x
            x  Al           1         0.000000   0.906327   0.250000   x
            x  Al           2         0.500000   0.406328   0.250000   x
            x  Al           3         0.000000   0.093673   0.750000   x
            x  Al           4         0.500000   0.593672   0.750000   x
            x  Si           1         0.290742   0.093671   0.227997   x
            x  Si           2         0.790744   0.593670   0.228003   x
            x  Si           3         0.709258   0.093671   0.272003   x
            x  Si           4         0.209256   0.593670   0.271997   x
            x  Si           5         0.709258   0.906329   0.772003   x
            x  Si           6         0.209256   0.406330   0.771997   x
            x  Si           7         0.290742   0.906329   0.727997   x
            x  Si           8         0.790744   0.406330   0.728003   x
            xxxxxxxxxxxxxxxxxxxxxxxxxxxxxxxxxxxxxxxxxxxxxxxxxxxxxxxxxxxx
 
 
------------------------------------------------------------------------ <-- SCF
SCF loop      Energy                           Energy gain       Timer   <-- SCF
                                               per atom          (sec)   <-- SCF
------------------------------------------------------------------------ <-- SCF
Initial  -1.68460528E+004                                        175.79  <-- SCF
      1  -1.68460674E+004                    3.63387764E-004     187.08  <-- SCF
      2  -1.68460674E+004                    1.62721338E-007     198.35  <-- SCF
      3  -1.68460674E+004                    2.01793980E-009     209.67  <-- SCF
      4  -1.68460674E+004                    4.09898855E-011     220.97  <-- SCF
------------------------------------------------------------------------ <-- SCF
 
Final energy =  -16846.06739097     eV
(energy not corrected for finite basis set)
 
 
 *********************************** Forces ***********************************
 *                                                                            *
 *                        Cartesian components (eV/A)                         *
 * -------------------------------------------------------------------------- *
 *                   x                    y                    z              *
 *                                                                            *
 * O         1     -0.01419              0.01476              0.00936         *
 * O         2     -0.01434              0.01481              0.00933         *
 * O         3      0.01419              0.01476             -0.00936         *
 * O         4      0.01434              0.01481             -0.00933         *
 * O         5      0.01419             -0.01476             -0.00936         *
 * O         6      0.01434             -0.01481             -0.00933         *
 * O         7     -0.01419             -0.01476              0.00936         *
 * O         8     -0.01434             -0.01481              0.00933         *
 * O         9     -0.01001              0.02064              0.01270         *
 * O        10     -0.00997              0.02061              0.01271         *
 * O        11      0.01001              0.02064             -0.01270         *
 * O        12      0.00997              0.02061             -0.01271         *
 * O        13      0.01001             -0.02064             -0.01270         *
 * O        14      0.00997             -0.02061             -0.01271         *
 * O        15     -0.01001             -0.02064              0.01270         *
 * O        16     -0.00997             -0.02061              0.01271         *
 * O        17      0.01350              0.00932             -0.00402         *
 * O        18      0.01340              0.00938             -0.00407         *
 * O        19     -0.01350              0.00932              0.00402         *
 * O        20     -0.01340              0.00938              0.00407         *
 * O        21     -0.01350             -0.00932              0.00402         *
 * O        22     -0.01340             -0.00938              0.00407         *
 * O        23      0.01350             -0.00932             -0.00402         *
 * O        24      0.01340             -0.00938             -0.00407         *
 * Na        1      0.00000              0.00444              0.00000         *
 * Na        2      0.00000              0.00433              0.00000         *
 * Na        3      0.00000             -0.00444              0.00000         *
 * Na        4      0.00000             -0.00433              0.00000         *
 * Al        1      0.00000              0.02031              0.00000         *
 * Al        2      0.00000              0.02036              0.00000         *
 * Al        3      0.00000             -0.02031              0.00000         *
 * Al        4      0.00000             -0.02036              0.00000         *
 * Si        1     -0.00106              0.03433              0.00648         *
 * Si        2     -0.00114              0.03442              0.00647         *
 * Si        3      0.00106              0.03433             -0.00648         *
 * Si        4      0.00114              0.03442             -0.00647         *
 * Si        5      0.00106             -0.03433             -0.00648         *
 * Si        6      0.00114             -0.03442             -0.00647         *
 * Si        7     -0.00106             -0.03433              0.00648         *
 * Si        8     -0.00114             -0.03442              0.00647         *
 *                                                                            *
 ******************************************************************************
  
 +------------+-------------+-------------+-----------------+ <-- min BFGS
 |    Step    |   lambda    |   F.delta   |    enthalpy     | <-- min BFGS
 +------------+-------------+-------------+-----------------+ <-- min BFGS
 |  previous  |    0.000000 |    0.000059 |   -16835.336083 | <-- min BFGS
 | trial step |    1.000000 |    0.000038 |   -16835.337399 | <-- min BFGS
 |  line step |    2.863394 |    0.000000 |   -16835.338374 | <-- min BFGS
 +------------+-------------+-------------+-----------------+ <-- min BFGS
  
 BFGS: finished iteration     1 with enthalpy= -1.68353384E+004 eV
  
 +-----------+-----------------+-----------------+------------+-----+ <-- BFGS
 | Parameter |      value      |    tolerance    |    units   | OK? | <-- BFGS
 +-----------+-----------------+-----------------+------------+-----+ <-- BFGS
 |  dE/ion   |   5.727639E-005 |   2.000000E-007 |         eV | No  | <-- BFGS
 |  |F|max   |   3.504289E-002 |   1.000000E-003 |       eV/A | No  | <-- BFGS
 |  |dR|max  |   2.116520E-003 |   1.000000E-003 |          A | No  | <-- BFGS
 +-----------+-----------------+-----------------+------------+-----+ <-- BFGS
  

================================================================================
 Starting BFGS iteration          2 ...
================================================================================
 
Writing model to jadeite_4_30_GPa_cij__3__2.check
  
 +------------+-------------+-------------+-----------------+ <-- min BFGS
 |    Step    |   lambda    |   F.delta   |    enthalpy     | <-- min BFGS
 +------------+-------------+-------------+-----------------+ <-- min BFGS
 |  previous  |    0.000000 |    0.000004 |   -16835.338374 | <-- min BFGS
 +------------+-------------+-------------+-----------------+ <-- min BFGS
  

--------------------------------------------------------------------------------
 BFGS: starting iteration         2 with trial guess (lambda=  1.000000)
--------------------------------------------------------------------------------
 
                           -------------------------------
                                     Cell Contents
                           -------------------------------
 
            xxxxxxxxxxxxxxxxxxxxxxxxxxxxxxxxxxxxxxxxxxxxxxxxxxxxxxxxxxxx
            x  Element    Atom        Fractional coordinates of atoms  x
            x            Number           u          v          w      x
            x----------------------------------------------------------x
            x  O            1         0.109291   0.077001   0.129231   x
            x  O            2         0.609293   0.577000   0.129233   x
            x  O            3         0.890709   0.077001   0.370769   x
            x  O            4         0.390707   0.577000   0.370767   x
            x  O            5         0.890709   0.922999   0.870769   x
            x  O            6         0.390707   0.423000   0.870767   x
            x  O            7         0.109291   0.922999   0.629231   x
            x  O            8         0.609293   0.423000   0.629233   x
            x  O            9         0.361124   0.263997   0.295476   x
            x  O           10         0.861123   0.763998   0.295475   x
            x  O           11         0.638876   0.263997   0.204524   x
            x  O           12         0.138877   0.763998   0.204525   x
            x  O           13         0.638876   0.736003   0.704524   x
            x  O           14         0.138877   0.236002   0.704525   x
            x  O           15         0.361124   0.736003   0.795476   x
            x  O           16         0.861123   0.236002   0.795475   x
            x  O           17         0.354060   0.008509   1.005093   x
            x  O           18         0.854063   0.508506   1.005103   x
            x  O           19         0.645940   0.008509   0.494907   x
            x  O           20         0.145937   0.508506   0.494897   x
            x  O           21         0.645940   0.991491  -0.005093   x
            x  O           22         0.145937   0.491494  -0.005103   x
            x  O           23         0.354060   0.991491   0.505093   x
            x  O           24         0.854063   0.491494   0.505103   x
            x  Na           1         0.000000   0.301241   0.250000   x
            x  Na           2         0.500000   0.801246   0.250000   x
            x  Na           3         0.000000   0.698759   0.750000   x
            x  Na           4         0.500000   0.198754   0.750000   x
            x  Al           1         0.000000   0.906341   0.250000   x
            x  Al           2         0.500000   0.406341   0.250000   x
            x  Al           3         0.000000   0.093659   0.750000   x
            x  Al           4         0.500000   0.593659   0.750000   x
            x  Si           1         0.290738   0.093686   0.228000   x
            x  Si           2         0.790739   0.593685   0.228005   x
            x  Si           3         0.709262   0.093686   0.272000   x
            x  Si           4         0.209261   0.593685   0.271995   x
            x  Si           5         0.709262   0.906314   0.772000   x
            x  Si           6         0.209261   0.406315   0.771995   x
            x  Si           7         0.290738   0.906314   0.728000   x
            x  Si           8         0.790739   0.406315   0.728005   x
            xxxxxxxxxxxxxxxxxxxxxxxxxxxxxxxxxxxxxxxxxxxxxxxxxxxxxxxxxxxx
 
 
------------------------------------------------------------------------ <-- SCF
SCF loop      Energy                           Energy gain       Timer   <-- SCF
                                               per atom          (sec)   <-- SCF
------------------------------------------------------------------------ <-- SCF
Initial  -1.68460671E+004                                        226.59  <-- SCF
      1  -1.68460675E+004                    1.08299209E-005     237.89  <-- SCF
      2  -1.68460675E+004                    4.72783527E-009     249.13  <-- SCF
      3  -1.68460675E+004                    5.72311609E-011     261.43  <-- SCF
------------------------------------------------------------------------ <-- SCF
 
Final energy =  -16846.06750102     eV
(energy not corrected for finite basis set)
 
 
 *********************************** Forces ***********************************
 *                                                                            *
 *                        Cartesian components (eV/A)                         *
 * -------------------------------------------------------------------------- *
 *                   x                    y                    z              *
 *                                                                            *
 * O         1     -0.01264              0.01473              0.00909         *
 * O         2     -0.01278              0.01478              0.00906         *
 * O         3      0.01264              0.01473             -0.00909         *
 * O         4      0.01278              0.01478             -0.00906         *
 * O         5      0.01264             -0.01473             -0.00909         *
 * O         6      0.01278             -0.01478             -0.00906         *
 * O         7     -0.01264             -0.01473              0.00909         *
 * O         8     -0.01278             -0.01478              0.00906         *
 * O         9     -0.01076              0.01872              0.01234         *
 * O        10     -0.01071              0.01869              0.01235         *
 * O        11      0.01076              0.01872             -0.01234         *
 * O        12      0.01071              0.01869             -0.01235         *
 * O        13      0.01076             -0.01872             -0.01234         *
 * O        14      0.01071             -0.01869             -0.01235         *
 * O        15     -0.01076             -0.01872              0.01234         *
 * O        16     -0.01071             -0.01869              0.01235         *
 * O        17      0.01095              0.00912             -0.00354         *
 * O        18      0.01085              0.00917             -0.00359         *
 * O        19     -0.01095              0.00912              0.00354         *
 * O        20     -0.01085              0.00917              0.00359         *
 * O        21     -0.01095             -0.00912              0.00354         *
 * O        22     -0.01085             -0.00917              0.00359         *
 * O        23      0.01095             -0.00912             -0.00354         *
 * O        24      0.01085             -0.00917             -0.00359         *
 * Na        1      0.00000              0.00505              0.00000         *
 * Na        2      0.00000              0.00494              0.00000         *
 * Na        3      0.00000             -0.00505              0.00000         *
 * Na        4      0.00000             -0.00494              0.00000         *
 * Al        1      0.00000              0.01963              0.00000         *
 * Al        2      0.00000              0.01967              0.00000         *
 * Al        3      0.00000             -0.01963              0.00000         *
 * Al        4      0.00000             -0.01967              0.00000         *
 * Si        1      0.00113              0.03140              0.00615         *
 * Si        2      0.00105              0.03147              0.00614         *
 * Si        3     -0.00113              0.03140             -0.00615         *
 * Si        4     -0.00105              0.03147             -0.00614         *
 * Si        5     -0.00113             -0.03140             -0.00615         *
 * Si        6     -0.00105             -0.03147             -0.00614         *
 * Si        7      0.00113             -0.03140              0.00615         *
 * Si        8      0.00105             -0.03147              0.00614         *
 *                                                                            *
 ******************************************************************************
  
 +------------+-------------+-------------+-----------------+ <-- min BFGS
 |    Step    |   lambda    |   F.delta   |    enthalpy     | <-- min BFGS
 +------------+-------------+-------------+-----------------+ <-- min BFGS
 |  previous  |    0.000000 |    0.000004 |   -16835.338374 | <-- min BFGS
 | trial step |    1.000000 |    0.000004 |   -16835.338484 | <-- min BFGS
 +------------+-------------+-------------+-----------------+ <-- min BFGS
  

--------------------------------------------------------------------------------
 BFGS: improving iteration         2 with line minimization (lambda= 12.720876)
--------------------------------------------------------------------------------
 
                           -------------------------------
                                     Cell Contents
                           -------------------------------
 
            xxxxxxxxxxxxxxxxxxxxxxxxxxxxxxxxxxxxxxxxxxxxxxxxxxxxxxxxxxxx
            x  Element    Atom        Fractional coordinates of atoms  x
            x            Number           u          v          w      x
            x----------------------------------------------------------x
            x  O            1         0.109208   0.077113   0.129291   x
            x  O            2         0.609209   0.577112   0.129293   x
            x  O            3         0.890792   0.077113   0.370709   x
            x  O            4         0.390791   0.577112   0.370707   x
            x  O            5         0.890792   0.922887   0.870709   x
            x  O            6         0.390791   0.422888   0.870707   x
            x  O            7         0.109208   0.922887   0.629291   x
            x  O            8         0.609209   0.422888   0.629293   x
            x  O            9         0.361087   0.264214   0.295608   x
            x  O           10         0.861087   0.764215   0.295607   x
            x  O           11         0.638913   0.264214   0.204392   x
            x  O           12         0.138913   0.764215   0.204393   x
            x  O           13         0.638913   0.735786   0.704392   x
            x  O           14         0.138913   0.235785   0.704393   x
            x  O           15         0.361087   0.735786   0.795608   x
            x  O           16         0.861087   0.235785   0.795607   x
            x  O           17         0.354154   0.008583   1.005107   x
            x  O           18         0.854156   0.508580   1.005116   x
            x  O           19         0.645846   0.008583   0.494893   x
            x  O           20         0.145844   0.508580   0.494884   x
            x  O           21         0.645846   0.991417  -0.005107   x
            x  O           22         0.145844   0.491420  -0.005116   x
            x  O           23         0.354154   0.991417   0.505107   x
            x  O           24         0.854156   0.491420   0.505116   x
            x  Na           1         0.000000   0.301274   0.250000   x
            x  Na           2         0.500000   0.801278   0.250000   x
            x  Na           3         0.000000   0.698726   0.750000   x
            x  Na           4         0.500000   0.198722   0.750000   x
            x  Al           1         0.000000   0.906494   0.250000   x
            x  Al           2         0.500000   0.406494   0.250000   x
            x  Al           3         0.000000   0.093506   0.750000   x
            x  Al           4         0.500000   0.593506   0.750000   x
            x  Si           1         0.290688   0.093863   0.228032   x
            x  Si           2         0.790689   0.593863   0.228037   x
            x  Si           3         0.709312   0.093863   0.271968   x
            x  Si           4         0.209311   0.593863   0.271963   x
            x  Si           5         0.709312   0.906137   0.771968   x
            x  Si           6         0.209311   0.406137   0.771963   x
            x  Si           7         0.290688   0.906137   0.728032   x
            x  Si           8         0.790689   0.406137   0.728037   x
            xxxxxxxxxxxxxxxxxxxxxxxxxxxxxxxxxxxxxxxxxxxxxxxxxxxxxxxxxxxx
 
 
------------------------------------------------------------------------ <-- SCF
SCF loop      Energy                           Energy gain       Timer   <-- SCF
                                               per atom          (sec)   <-- SCF
------------------------------------------------------------------------ <-- SCF
Initial  -1.68460396E+004                                        266.41  <-- SCF
      1  -1.68460681E+004                    7.11813583E-004     277.76  <-- SCF
      2  -1.68460681E+004                    3.18885842E-007     288.97  <-- SCF
      3  -1.68460681E+004                    2.53077740E-009     300.18  <-- SCF
      4  -1.68460681E+004                    5.22814389E-011     311.41  <-- SCF
------------------------------------------------------------------------ <-- SCF
 
Final energy =  -16846.06812051     eV
(energy not corrected for finite basis set)
 
 
 *********************************** Forces ***********************************
 *                                                                            *
 *                        Cartesian components (eV/A)                         *
 * -------------------------------------------------------------------------- *
 *                   x                    y                    z              *
 *                                                                            *
 * O         1      0.00539              0.01435              0.00584         *
 * O         2      0.00548              0.01443              0.00585         *
 * O         3     -0.00539              0.01435             -0.00584         *
 * O         4     -0.00548              0.01443             -0.00585         *
 * O         5     -0.00539             -0.01435             -0.00584         *
 * O         6     -0.00548             -0.01443             -0.00585         *
 * O         7      0.00539             -0.01435              0.00584         *
 * O         8      0.00548             -0.01443              0.00585         *
 * O         9     -0.01952             -0.00378              0.00811         *
 * O        10     -0.01948             -0.00373              0.00814         *
 * O        11      0.01952             -0.00378             -0.00811         *
 * O        12      0.01948             -0.00373             -0.00814         *
 * O        13      0.01952              0.00378             -0.00811         *
 * O        14      0.01948              0.00373             -0.00814         *
 * O        15     -0.01952              0.00378              0.00811         *
 * O        16     -0.01948              0.00373              0.00814         *
 * O        17     -0.01888              0.00674              0.00203         *
 * O        18     -0.01902              0.00677              0.00199         *
 * O        19      0.01888              0.00674             -0.00203         *
 * O        20      0.01902              0.00677             -0.00199         *
 * O        21      0.01888             -0.00674             -0.00203         *
 * O        22      0.01902             -0.00677             -0.00199         *
 * O        23     -0.01888             -0.00674              0.00203         *
 * O        24     -0.01902             -0.00677              0.00199         *
 * Na        1      0.00000              0.01211              0.00000         *
 * Na        2      0.00000              0.01202              0.00000         *
 * Na        3      0.00000             -0.01211              0.00000         *
 * Na        4      0.00000             -0.01202              0.00000         *
 * Al        1      0.00000              0.01169              0.00000         *
 * Al        2      0.00000              0.01165              0.00000         *
 * Al        3      0.00000             -0.01169              0.00000         *
 * Al        4      0.00000             -0.01165              0.00000         *
 * Si        1      0.02681             -0.00290              0.00233         *
 * Si        2      0.02668             -0.00305              0.00228         *
 * Si        3     -0.02681             -0.00290             -0.00233         *
 * Si        4     -0.02668             -0.00305             -0.00228         *
 * Si        5     -0.02681              0.00290             -0.00233         *
 * Si        6     -0.02668              0.00305             -0.00228         *
 * Si        7      0.02681              0.00290              0.00233         *
 * Si        8      0.02668              0.00305              0.00228         *
 *                                                                            *
 ******************************************************************************
  
 +------------+-------------+-------------+-----------------+ <-- min BFGS
 |    Step    |   lambda    |   F.delta   |    enthalpy     | <-- min BFGS
 +------------+-------------+-------------+-----------------+ <-- min BFGS
 |  previous  |    0.000000 |    0.000004 |   -16835.338374 | <-- min BFGS
 | trial step |    1.000000 |    0.000004 |   -16835.338484 | <-- min BFGS
 |  line step |   12.720876 |    0.000000 |   -16835.339103 | <-- min BFGS
 +------------+-------------+-------------+-----------------+ <-- min BFGS
  
 BFGS: finished iteration     2 with enthalpy= -1.68353391E+004 eV
  
 +-----------+-----------------+-----------------+------------+-----+ <-- BFGS
 | Parameter |      value      |    tolerance    |    units   | OK? | <-- BFGS
 +-----------+-----------------+-----------------+------------+-----+ <-- BFGS
 |  dE/ion   |   1.823855E-005 |   2.000000E-007 |         eV | No  | <-- BFGS
 |  |F|max   |   2.706479E-002 |   1.000000E-003 |       eV/A | No  | <-- BFGS
 |  |dR|max  |   2.212627E-003 |   1.000000E-003 |          A | No  | <-- BFGS
 +-----------+-----------------+-----------------+------------+-----+ <-- BFGS
  

================================================================================
 Starting BFGS iteration          3 ...
================================================================================
 
Writing model to jadeite_4_30_GPa_cij__3__2.check
  
 +------------+-------------+-------------+-----------------+ <-- min BFGS
 |    Step    |   lambda    |   F.delta   |    enthalpy     | <-- min BFGS
 +------------+-------------+-------------+-----------------+ <-- min BFGS
 |  previous  |    0.000000 |    0.000003 |   -16835.339103 | <-- min BFGS
 +------------+-------------+-------------+-----------------+ <-- min BFGS
  

--------------------------------------------------------------------------------
 BFGS: starting iteration         3 with trial guess (lambda=  1.000000)
--------------------------------------------------------------------------------
 
                           -------------------------------
                                     Cell Contents
                           -------------------------------
 
            xxxxxxxxxxxxxxxxxxxxxxxxxxxxxxxxxxxxxxxxxxxxxxxxxxxxxxxxxxxx
            x  Element    Atom        Fractional coordinates of atoms  x
            x            Number           u          v          w      x
            x----------------------------------------------------------x
            x  O            1         0.109205   0.077126   0.129301   x
            x  O            2         0.609205   0.577125   0.129303   x
            x  O            3         0.890795   0.077126   0.370699   x
            x  O            4         0.390795   0.577125   0.370697   x
            x  O            5         0.890795   0.922874   0.870699   x
            x  O            6         0.390795   0.422875   0.870697   x
            x  O            7         0.109205   0.922874   0.629301   x
            x  O            8         0.609205   0.422875   0.629303   x
            x  O            9         0.361071   0.264216   0.295615   x
            x  O           10         0.861071   0.764216   0.295614   x
            x  O           11         0.638929   0.264216   0.204385   x
            x  O           12         0.138929   0.764216   0.204386   x
            x  O           13         0.638929   0.735784   0.704385   x
            x  O           14         0.138929   0.235784   0.704386   x
            x  O           15         0.361071   0.735784   0.795615   x
            x  O           16         0.861071   0.235784   0.795614   x
            x  O           17         0.354148   0.008590   1.005103   x
            x  O           18         0.854150   0.508587   1.005112   x
            x  O           19         0.645852   0.008590   0.494897   x
            x  O           20         0.145850   0.508587   0.494888   x
            x  O           21         0.645852   0.991410  -0.005103   x
            x  O           22         0.145850   0.491413  -0.005112   x
            x  O           23         0.354148   0.991410   0.505103   x
            x  O           24         0.854150   0.491413   0.505112   x
            x  Na           1         0.000000   0.301283   0.250000   x
            x  Na           2         0.500000   0.801286   0.250000   x
            x  Na           3         0.000000   0.698717   0.750000   x
            x  Na           4         0.500000   0.198714   0.750000   x
            x  Al           1         0.000000   0.906508   0.250000   x
            x  Al           2         0.500000   0.406508   0.250000   x
            x  Al           3         0.000000   0.093492   0.750000   x
            x  Al           4         0.500000   0.593492   0.750000   x
            x  Si           1         0.290705   0.093879   0.228048   x
            x  Si           2         0.790706   0.593879   0.228054   x
            x  Si           3         0.709295   0.093879   0.271952   x
            x  Si           4         0.209294   0.593879   0.271946   x
            x  Si           5         0.709295   0.906121   0.771952   x
            x  Si           6         0.209294   0.406121   0.771946   x
            x  Si           7         0.290705   0.906121   0.728048   x
            x  Si           8         0.790706   0.406121   0.728054   x
            xxxxxxxxxxxxxxxxxxxxxxxxxxxxxxxxxxxxxxxxxxxxxxxxxxxxxxxxxxxx
 
 
------------------------------------------------------------------------ <-- SCF
SCF loop      Energy                           Energy gain       Timer   <-- SCF
                                               per atom          (sec)   <-- SCF
------------------------------------------------------------------------ <-- SCF
Initial  -1.68460679E+004                                        317.01  <-- SCF
      1  -1.68460682E+004                    7.93173651E-006     328.31  <-- SCF
      2  -1.68460682E+004                    3.72760472E-009     339.56  <-- SCF
      3  -1.68460682E+004                    3.49574118E-011     351.90  <-- SCF
------------------------------------------------------------------------ <-- SCF
 
Final energy =  -16846.06819882     eV
(energy not corrected for finite basis set)
 
 
 *********************************** Forces ***********************************
 *                                                                            *
 *                        Cartesian components (eV/A)                         *
 * -------------------------------------------------------------------------- *
 *                   x                    y                    z              *
 *                                                                            *
 * O         1      0.00892              0.01402              0.00491         *
 * O         2      0.00899              0.01410              0.00492         *
 * O         3     -0.00892              0.01402             -0.00491         *
 * O         4     -0.00899              0.01410             -0.00492         *
 * O         5     -0.00892             -0.01402             -0.00491         *
 * O         6     -0.00899             -0.01410             -0.00492         *
 * O         7      0.00892             -0.01402              0.00491         *
 * O         8      0.00899             -0.01410              0.00492         *
 * O         9     -0.01445              0.00258              0.00775         *
 * O        10     -0.01443              0.00260              0.00778         *
 * O        11      0.01445              0.00258             -0.00775         *
 * O        12      0.01443              0.00260             -0.00778         *
 * O        13      0.01445             -0.00258             -0.00775         *
 * O        14      0.01443             -0.00260             -0.00778         *
 * O        15     -0.01445             -0.00258              0.00775         *
 * O        16     -0.01443             -0.00260              0.00778         *
 * O        17     -0.01759              0.00677              0.00216         *
 * O        18     -0.01773              0.00680              0.00212         *
 * O        19      0.01759              0.00677             -0.00216         *
 * O        20      0.01773              0.00680             -0.00212         *
 * O        21      0.01759             -0.00677             -0.00216         *
 * O        22      0.01773             -0.00680             -0.00212         *
 * O        23     -0.01759             -0.00677              0.00216         *
 * O        24     -0.01773             -0.00680              0.00212         *
 * Na        1      0.00000              0.01176              0.00000         *
 * Na        2      0.00000              0.01167              0.00000         *
 * Na        3      0.00000             -0.01176              0.00000         *
 * Na        4      0.00000             -0.01167              0.00000         *
 * Al        1      0.00000              0.01133              0.00000         *
 * Al        2      0.00000              0.01129              0.00000         *
 * Al        3      0.00000             -0.01133              0.00000         *
 * Al        4      0.00000             -0.01129              0.00000         *
 * Si        1      0.01800             -0.01021              0.00174         *
 * Si        2      0.01791             -0.01032              0.00170         *
 * Si        3     -0.01800             -0.01021             -0.00174         *
 * Si        4     -0.01791             -0.01032             -0.00170         *
 * Si        5     -0.01800              0.01021             -0.00174         *
 * Si        6     -0.01791              0.01032             -0.00170         *
 * Si        7      0.01800              0.01021              0.00174         *
 * Si        8      0.01791              0.01032              0.00170         *
 *                                                                            *
 ******************************************************************************
  
 +------------+-------------+-------------+-----------------+ <-- min BFGS
 |    Step    |   lambda    |   F.delta   |    enthalpy     | <-- min BFGS
 +------------+-------------+-------------+-----------------+ <-- min BFGS
 |  previous  |    0.000000 |    0.000003 |   -16835.339103 | <-- min BFGS
 | trial step |    1.000000 |    0.000002 |   -16835.339182 | <-- min BFGS
 +------------+-------------+-------------+-----------------+ <-- min BFGS
  

--------------------------------------------------------------------------------
 BFGS: improving iteration         3 with line minimization (lambda=  3.448181)
--------------------------------------------------------------------------------
 
                           -------------------------------
                                     Cell Contents
                           -------------------------------
 
            xxxxxxxxxxxxxxxxxxxxxxxxxxxxxxxxxxxxxxxxxxxxxxxxxxxxxxxxxxxx
            x  Element    Atom        Fractional coordinates of atoms  x
            x            Number           u          v          w      x
            x----------------------------------------------------------x
            x  O            1         0.109197   0.077160   0.129325   x
            x  O            2         0.609197   0.577159   0.129327   x
            x  O            3         0.890803   0.077160   0.370675   x
            x  O            4         0.390803   0.577159   0.370673   x
            x  O            5         0.890803   0.922840   0.870675   x
            x  O            6         0.390803   0.422841   0.870673   x
            x  O            7         0.109197   0.922840   0.629325   x
            x  O            8         0.609197   0.422841   0.629327   x
            x  O            9         0.361031   0.264220   0.295631   x
            x  O           10         0.861031   0.764220   0.295631   x
            x  O           11         0.638969   0.264220   0.204369   x
            x  O           12         0.138969   0.764220   0.204369   x
            x  O           13         0.638969   0.735780   0.704369   x
            x  O           14         0.138969   0.235780   0.704369   x
            x  O           15         0.361031   0.735780   0.795631   x
            x  O           16         0.861031   0.235780   0.795631   x
            x  O           17         0.354136   0.008607   1.005093   x
            x  O           18         0.854137   0.508604   1.005101   x
            x  O           19         0.645864   0.008607   0.494907   x
            x  O           20         0.145863   0.508604   0.494899   x
            x  O           21         0.645864   0.991393  -0.005093   x
            x  O           22         0.145863   0.491396  -0.005101   x
            x  O           23         0.354136   0.991393   0.505093   x
            x  O           24         0.854137   0.491396   0.505101   x
            x  Na           1         0.000000   0.301304   0.250000   x
            x  Na           2         0.500000   0.801307   0.250000   x
            x  Na           3         0.000000   0.698696   0.750000   x
            x  Na           4         0.500000   0.198693   0.750000   x
            x  Al           1         0.000000   0.906542   0.250000   x
            x  Al           2         0.500000   0.406543   0.250000   x
            x  Al           3         0.000000   0.093458   0.750000   x
            x  Al           4         0.500000   0.593457   0.750000   x
            x  Si           1         0.290746   0.093919   0.228089   x
            x  Si           2         0.790746   0.593919   0.228094   x
            x  Si           3         0.709254   0.093919   0.271911   x
            x  Si           4         0.209254   0.593919   0.271906   x
            x  Si           5         0.709254   0.906081   0.771911   x
            x  Si           6         0.209254   0.406081   0.771906   x
            x  Si           7         0.290746   0.906081   0.728089   x
            x  Si           8         0.790746   0.406081   0.728094   x
            xxxxxxxxxxxxxxxxxxxxxxxxxxxxxxxxxxxxxxxxxxxxxxxxxxxxxxxxxxxx
 
 
------------------------------------------------------------------------ <-- SCF
SCF loop      Energy                           Energy gain       Timer   <-- SCF
                                               per atom          (sec)   <-- SCF
------------------------------------------------------------------------ <-- SCF
Initial  -1.68460669E+004                                        356.85  <-- SCF
      1  -1.68460683E+004                    3.47617151E-005     368.19  <-- SCF
      2  -1.68460683E+004                    1.45261194E-008     379.42  <-- SCF
      3  -1.68460683E+004                    1.41531114E-010     390.66  <-- SCF
      4  -1.68460683E+004                    2.86155805E-012     403.02  <-- SCF
------------------------------------------------------------------------ <-- SCF
 
Final energy =  -16846.06827835     eV
(energy not corrected for finite basis set)
 
 
 *********************************** Forces ***********************************
 *                                                                            *
 *                        Cartesian components (eV/A)                         *
 * -------------------------------------------------------------------------- *
 *                   x                    y                    z              *
 *                                                                            *
 * O         1      0.01751              0.01319              0.00262         *
 * O         2      0.01751              0.01324              0.00262         *
 * O         3     -0.01751              0.01319             -0.00262         *
 * O         4     -0.01751              0.01324             -0.00262         *
 * O         5     -0.01751             -0.01319             -0.00262         *
 * O         6     -0.01751             -0.01324             -0.00262         *
 * O         7      0.01751             -0.01319              0.00262         *
 * O         8      0.01751             -0.01324              0.00262         *
 * O         9     -0.00202              0.01817              0.00685         *
 * O        10     -0.00204              0.01810              0.00687         *
 * O        11      0.00202              0.01817             -0.00685         *
 * O        12      0.00204              0.01810             -0.00687         *
 * O        13      0.00202             -0.01817             -0.00685         *
 * O        14      0.00204             -0.01810             -0.00687         *
 * O        15     -0.00202             -0.01817              0.00685         *
 * O        16     -0.00204             -0.01810              0.00687         *
 * O        17     -0.01444              0.00683              0.00250         *
 * O        18     -0.01456              0.00686              0.00245         *
 * O        19      0.01444              0.00683             -0.00250         *
 * O        20      0.01456              0.00686             -0.00245         *
 * O        21      0.01444             -0.00683             -0.00250         *
 * O        22      0.01456             -0.00686             -0.00245         *
 * O        23     -0.01444             -0.00683              0.00250         *
 * O        24     -0.01456             -0.00686              0.00245         *
 * Na        1      0.00000              0.01087              0.00000         *
 * Na        2      0.00000              0.01081              0.00000         *
 * Na        3      0.00000             -0.01087              0.00000         *
 * Na        4      0.00000             -0.01081              0.00000         *
 * Al        1      0.00000              0.01046              0.00000         *
 * Al        2      0.00000              0.01041              0.00000         *
 * Al        3      0.00000             -0.01046              0.00000         *
 * Al        4      0.00000             -0.01041              0.00000         *
 * Si        1     -0.00354             -0.02814              0.00029         *
 * Si        2     -0.00353             -0.02813              0.00027         *
 * Si        3      0.00354             -0.02814             -0.00029         *
 * Si        4      0.00353             -0.02813             -0.00027         *
 * Si        5      0.00354              0.02814             -0.00029         *
 * Si        6      0.00353              0.02813             -0.00027         *
 * Si        7     -0.00354              0.02814              0.00029         *
 * Si        8     -0.00353              0.02813              0.00027         *
 *                                                                            *
 ******************************************************************************
  
 +------------+-------------+-------------+-----------------+ <-- min BFGS
 |    Step    |   lambda    |   F.delta   |    enthalpy     | <-- min BFGS
 +------------+-------------+-------------+-----------------+ <-- min BFGS
 |  previous  |    0.000000 |    0.000003 |   -16835.339103 | <-- min BFGS
 | trial step |    1.000000 |    0.000002 |   -16835.339182 | <-- min BFGS
 |  line step |    3.448181 |    0.000000 |   -16835.339261 | <-- min BFGS
 +------------+-------------+-------------+-----------------+ <-- min BFGS
  
 BFGS: finished iteration     3 with enthalpy= -1.68353393E+004 eV
  
 +-----------+-----------------+-----------------+------------+-----+ <-- BFGS
 | Parameter |      value      |    tolerance    |    units   | OK? | <-- BFGS
 +-----------+-----------------+-----------------+------------+-----+ <-- BFGS
 |  dE/ion   |   3.946048E-006 |   2.000000E-007 |         eV | No  | <-- BFGS
 |  |F|max   |   2.836663E-002 |   1.000000E-003 |       eV/A | No  | <-- BFGS
 |  |dR|max  |   7.166450E-004 |   1.000000E-003 |          A | Yes | <-- BFGS
 +-----------+-----------------+-----------------+------------+-----+ <-- BFGS
  

================================================================================
 Starting BFGS iteration          4 ...
================================================================================
 
Writing model to jadeite_4_30_GPa_cij__3__2.check
  
 +------------+-------------+-------------+-----------------+ <-- min BFGS
 |    Step    |   lambda    |   F.delta   |    enthalpy     | <-- min BFGS
 +------------+-------------+-------------+-----------------+ <-- min BFGS
[...]
            x  O           20         0.145994   0.508890   0.495090   x
            x  O           21         0.645995   0.991110  -0.004909   x
            x  O           22         0.145994   0.491110  -0.004910   x
            x  O           23         0.354005   0.991110   0.504909   x
            x  O           24         0.854006   0.491110   0.504910   x
            x  Na           1         0.000000   0.301655   0.250000   x
            x  Na           2         0.500000   0.801656   0.250000   x
            x  Na           3         0.000000   0.698345   0.750000   x
            x  Na           4         0.500000   0.198344   0.750000   x
            x  Al           1         0.000000   0.906598   0.250000   x
            x  Al           2         0.500000   0.406598   0.250000   x
            x  Al           3         0.000000   0.093402   0.750000   x
            x  Al           4         0.500000   0.593402   0.750000   x
            x  Si           1         0.290726   0.093934   0.228253   x
            x  Si           2         0.790726   0.593934   0.228253   x
            x  Si           3         0.709274   0.093934   0.271747   x
            x  Si           4         0.209274   0.593934   0.271747   x
            x  Si           5         0.709274   0.906066   0.771747   x
            x  Si           6         0.209274   0.406066   0.771747   x
            x  Si           7         0.290726   0.906066   0.728253   x
            x  Si           8         0.790726   0.406066   0.728253   x
            xxxxxxxxxxxxxxxxxxxxxxxxxxxxxxxxxxxxxxxxxxxxxxxxxxxxxxxxxxxx
 
 
 BFGS: Final Enthalpy     = -1.68353397E+004 eV
 BFGS: Final <frequency>  =    1035.89245 cm-1
 
 ***************************** Symmetrised Forces *****************************
 *                                                                            *
 *                        Cartesian components (eV/A)                         *
 * -------------------------------------------------------------------------- *
 *                   x                    y                    z              *
 *                                                                            *
 * O         1      0.00011             -0.00053              0.00020         *
 * O         2      0.00016             -0.00050              0.00021         *
 * O         3     -0.00011             -0.00053             -0.00020         *
 * O         4     -0.00016             -0.00050             -0.00021         *
 * O         5     -0.00011              0.00053             -0.00020         *
 * O         6     -0.00016              0.00050             -0.00021         *
 * O         7      0.00011              0.00053              0.00020         *
 * O         8      0.00016              0.00050              0.00021         *
 * O         9     -0.00036              0.00019             -0.00001         *
 * O        10     -0.00030              0.00029             -0.00001         *
 * O        11      0.00036              0.00019              0.00001         *
 * O        12      0.00030              0.00029              0.00001         *
 * O        13      0.00036             -0.00019              0.00001         *
 * O        14      0.00030             -0.00029              0.00001         *
 * O        15     -0.00036             -0.00019             -0.00001         *
 * O        16     -0.00030             -0.00029             -0.00001         *
 * O        17      0.00031              0.00002             -0.00020         *
 * O        18      0.00031              0.00002             -0.00021         *
 * O        19     -0.00031              0.00002              0.00020         *
 * O        20     -0.00031              0.00002              0.00021         *
 * O        21     -0.00031             -0.00002              0.00020         *
 * O        22     -0.00031             -0.00002              0.00021         *
 * O        23      0.00031             -0.00002             -0.00020         *
 * O        24      0.00031             -0.00002             -0.00021         *
 * Na        1      0.00000              0.00091              0.00000         *
 * Na        2      0.00000              0.00088              0.00000         *
 * Na        3      0.00000             -0.00091              0.00000         *
 * Na        4      0.00000             -0.00088              0.00000         *
 * Al        1      0.00000             -0.00012              0.00000         *
 * Al        2      0.00000             -0.00009              0.00000         *
 * Al        3      0.00000              0.00012              0.00000         *
 * Al        4      0.00000              0.00009              0.00000         *
 * Si        1      0.00005              0.00000             -0.00039         *
 * Si        2     -0.00009             -0.00009             -0.00040         *
 * Si        3     -0.00005              0.00000              0.00039         *
 * Si        4      0.00009             -0.00009              0.00040         *
 * Si        5     -0.00005              0.00000              0.00039         *
 * Si        6      0.00009              0.00009              0.00040         *
 * Si        7      0.00005              0.00000             -0.00039         *
 * Si        8     -0.00009              0.00009             -0.00040         *
 *                                                                            *
 ******************************************************************************
 
 *********** Symmetrised Stress Tensor ***********
 *                                               *
 *          Cartesian components (GPa)           *
 * --------------------------------------------- *
 *             x             y             z     *
 *                                               *
 *  x     -4.431524      0.000000     -0.052530  *
 *  y      0.000000     -5.052205      0.000000  *
 *  z     -0.052530      0.000000     -4.375568  *
 *                                               *
 *  Pressure:    4.6198                          *
 *                                               *
 *************************************************
 
 Pseudo atomic calculation performed for O 2s2 2p4
 
 Converged in 36 iterations to a total energy of -429.6485 eV
 
 
 Pseudo atomic calculation performed for Na 2s2 2p6 3s1
 
 Converged in 33 iterations to a total energy of -1302.8467 eV
 
 
 Pseudo atomic calculation performed for Al 3s2 3p1
 
 Converged in 20 iterations to a total energy of -52.7392 eV
 
 
 Pseudo atomic calculation performed for Si 3s2 3p2
 
 Converged in 21 iterations to a total energy of -101.9044 eV
 
Charge spilling parameter for spin component 1 = 0.85%
 
     Atomic Populations (Mulliken)
     -----------------------------
Species   Ion     s      p      d      f     Total  Charge (e)
==============================================================
  O        1     1.84   5.24   0.00   0.00   7.08    -1.08
  O        2     1.84   5.24   0.00   0.00   7.08    -1.08
  O        3     1.84   5.24   0.00   0.00   7.08    -1.08
  O        4     1.84   5.24   0.00   0.00   7.08    -1.08
  O        5     1.84   5.24   0.00   0.00   7.08    -1.08
  O        6     1.84   5.24   0.00   0.00   7.08    -1.08
  O        7     1.84   5.24   0.00   0.00   7.08    -1.08
  O        8     1.84   5.24   0.00   0.00   7.08    -1.08
  O        9     1.84   5.29   0.00   0.00   7.12    -1.12
  O       10     1.84   5.29   0.00   0.00   7.12    -1.12
  O       11     1.84   5.29   0.00   0.00   7.12    -1.12
  O       12     1.84   5.29   0.00   0.00   7.12    -1.12
  O       13     1.84   5.29   0.00   0.00   7.12    -1.12
  O       14     1.84   5.29   0.00   0.00   7.12    -1.12
  O       15     1.84   5.29   0.00   0.00   7.12    -1.12
  O       16     1.84   5.29   0.00   0.00   7.12    -1.12
  O       17     1.83   5.30   0.00   0.00   7.12    -1.12
  O       18     1.83   5.30   0.00   0.00   7.12    -1.12
  O       19     1.83   5.30   0.00   0.00   7.12    -1.12
  O       20     1.83   5.30   0.00   0.00   7.12    -1.12
  O       21     1.83   5.30   0.00   0.00   7.12    -1.12
  O       22     1.83   5.30   0.00   0.00   7.12    -1.12
  O       23     1.83   5.30   0.00   0.00   7.12    -1.12
  O       24     1.83   5.30   0.00   0.00   7.12    -1.12
  Na       1     2.04   5.77   0.00   0.00   7.81     1.19
  Na       2     2.04   5.77   0.00   0.00   7.81     1.19
  Na       3     2.04   5.77   0.00   0.00   7.81     1.19
  Na       4     2.04   5.77   0.00   0.00   7.81     1.19
  Al       1     0.51   0.92   0.00   0.00   1.42     1.58
  Al       2     0.51   0.92   0.00   0.00   1.42     1.58
  Al       3     0.51   0.92   0.00   0.00   1.42     1.58
  Al       4     0.51   0.92   0.00   0.00   1.42     1.58
  Si       1     0.69   1.36   0.00   0.00   2.05     1.95
  Si       2     0.69   1.36   0.00   0.00   2.05     1.95
  Si       3     0.69   1.36   0.00   0.00   2.05     1.95
  Si       4     0.69   1.36   0.00   0.00   2.05     1.95
  Si       5     0.69   1.36   0.00   0.00   2.05     1.95
  Si       6     0.69   1.36   0.00   0.00   2.05     1.95
  Si       7     0.69   1.36   0.00   0.00   2.05     1.95
  Si       8     0.69   1.36   0.00   0.00   2.05     1.95
==============================================================
 
     Bond                     Population      Length (A)
============================================================
   O 012 --   Si 004               0.76        1.59145
   O 010 --   Si 002               0.76        1.59145
   O 014 --   Si 006               0.76        1.59145
   O 016 --   Si 008               0.76        1.59145
   O 011 --   Si 003               0.76        1.59145
   O 009 --   Si 001               0.76        1.59145
   O 013 --   Si 005               0.76        1.59145
   O 015 --   Si 007               0.76        1.59145
   O 024 --   Si 008               0.56        1.63019
   O 018 --   Si 002               0.56        1.63019
   O 022 --   Si 006               0.56        1.63019
   O 020 --   Si 004               0.56        1.63019
   O 023 --   Si 007               0.56        1.63019
   O 021 --   Si 005               0.56        1.63019
   O 017 --   Si 001               0.56        1.63019
   O 019 --   Si 003               0.56        1.63019
   O 005 --   Si 005               0.60        1.63637
   O 003 --   Si 003               0.60        1.63637
   O 007 --   Si 007               0.60        1.63637
   O 001 --   Si 001               0.60        1.63637
   O 008 --   Si 008               0.60        1.63638
   O 002 --   Si 002               0.60        1.63638
   O 006 --   Si 006               0.60        1.63638
   O 004 --   Si 004               0.60        1.63638
   O 020 --   Si 006               0.58        1.64080
   O 018 --   Si 008               0.58        1.64080
   O 024 --   Si 002               0.58        1.64080
   O 022 --   Si 004               0.58        1.64080
   O 021 --   Si 003               0.58        1.64080
   O 019 --   Si 005               0.58        1.64080
   O 017 --   Si 007               0.58        1.64080
   O 023 --   Si 001               0.58        1.64080
   O 013 --   Al 004               0.42        1.85260
   O 015 --   Al 004               0.42        1.85260
   O 009 --   Al 002               0.42        1.85260
   O 011 --   Al 002               0.42        1.85260
   O 016 --   Al 003               0.42        1.85260
   O 010 --   Al 001               0.42        1.85260
   O 014 --   Al 003               0.42        1.85260
   O 012 --   Al 001               0.42        1.85260
   O 001 --   Al 003               0.32        1.94281
   O 005 --   Al 001               0.32        1.94281
   O 003 --   Al 003               0.32        1.94281
   O 007 --   Al 001               0.32        1.94281
   O 004 --   Al 004               0.32        1.94281
   O 002 --   Al 004               0.32        1.94281
   O 006 --   Al 002               0.32        1.94281
   O 008 --   Al 002               0.32        1.94281
   O 004 --   Al 002               0.31        1.99069
   O 002 --   Al 002               0.31        1.99069
   O 006 --   Al 004               0.31        1.99069
   O 008 --   Al 004               0.31        1.99069
   O 007 --   Al 003               0.31        1.99070
   O 005 --   Al 003               0.31        1.99070
   O 001 --   Al 001               0.31        1.99070
   O 003 --   Al 001               0.31        1.99070
   O 007 --   Na 003              -0.02        2.34545
   O 001 --   Na 001              -0.02        2.34545
   O 005 --   Na 003              -0.02        2.34545
   O 003 --   Na 001              -0.02        2.34545
   O 004 --   Na 002              -0.02        2.34546
   O 002 --   Na 002              -0.02        2.34546
   O 008 --   Na 004              -0.02        2.34546
   O 006 --   Na 004              -0.02        2.34546
   O 020 --   Na 001              -0.04        2.36483
   O 018 --   Na 001              -0.04        2.36483
   O 022 --   Na 003              -0.04        2.36483
   O 024 --   Na 003              -0.04        2.36483
   O 023 --   Na 004              -0.04        2.36483
   O 021 --   Na 004              -0.04        2.36483
   O 019 --   Na 002              -0.04        2.36483
   O 017 --   Na 002              -0.04        2.36483
   O 012 --   Na 003              -0.05        2.40400
   O 010 --   Na 003              -0.05        2.40400
   O 016 --   Na 001              -0.05        2.40400
   O 014 --   Na 001              -0.05        2.40400
   O 015 --   Na 002              -0.05        2.40400
   O 011 --   Na 004              -0.05        2.40400
   O 013 --   Na 002              -0.05        2.40400
   O 009 --   Na 004              -0.05        2.40400
   O 004 --    O 008              -0.10        2.47499
   O 002 --    O 006              -0.10        2.47499
   O 001 --    O 005              -0.10        2.47499
   O 003 --    O 007              -0.10        2.47499
   O 012 --    O 022              -0.10        2.58099
   O 014 --    O 020              -0.10        2.58099
   O 010 --    O 024              -0.10        2.58099
   O 016 --    O 018              -0.10        2.58099
   O 011 --    O 021              -0.10        2.58100
   O 009 --    O 023              -0.10        2.58100
   O 015 --    O 017              -0.10        2.58100
   O 013 --    O 019              -0.10        2.58100
   O 020 --    O 022              -0.17        2.61436
   O 018 --    O 024              -0.17        2.61436
   O 017 --    O 023              -0.17        2.61436
   O 019 --    O 021              -0.17        2.61436
   O 002 --    O 018              -0.09        2.64129
   O 008 --    O 024              -0.09        2.64129
   O 006 --    O 022              -0.09        2.64129
   O 004 --    O 020              -0.09        2.64129
   O 005 --    O 021              -0.09        2.64129
   O 003 --    O 019              -0.09        2.64129
   O 007 --    O 023              -0.09        2.64129
   O 001 --    O 017              -0.09        2.64129
   O 007 --    O 017              -0.08        2.64224
   O 005 --    O 019              -0.08        2.64224
   O 003 --    O 021              -0.08        2.64224
   O 001 --    O 023              -0.08        2.64224
   O 008 --    O 018              -0.08        2.64224
   O 002 --    O 024              -0.08        2.64224
   O 006 --    O 020              -0.08        2.64224
   O 004 --    O 022              -0.08        2.64224
   O 010 --    O 018              -0.09        2.64511
   O 016 --    O 024              -0.09        2.64511
   O 012 --    O 020              -0.09        2.64511
   O 014 --    O 022              -0.09        2.64511
   O 009 --    O 017              -0.09        2.64511
   O 011 --    O 019              -0.09        2.64511
   O 013 --    O 021              -0.09        2.64511
   O 015 --    O 023              -0.09        2.64511
   O 005 --    O 010              -0.08        2.68496
   O 003 --    O 016              -0.08        2.68496
   O 001 --    O 014              -0.08        2.68496
   O 007 --    O 012              -0.08        2.68496
   O 002 --    O 013              -0.08        2.68496
   O 006 --    O 009              -0.08        2.68496
   O 008 --    O 011              -0.08        2.68496
   O 004 --    O 015              -0.08        2.68496
   O 008 --    O 013              -0.06        2.70016
   O 006 --    O 015              -0.06        2.70016
   O 004 --    O 009              -0.06        2.70016
   O 002 --    O 011              -0.06        2.70016
   O 007 --    O 014              -0.06        2.70016
   O 005 --    O 016              -0.06        2.70016
   O 003 --    O 010              -0.06        2.70016
   O 001 --    O 012              -0.06        2.70016
   O 017 --   Na 004              -0.02        2.71466
   O 019 --   Na 004              -0.02        2.71466
   O 023 --   Na 002              -0.02        2.71466
   O 021 --   Na 002              -0.02        2.71466
   O 022 --   Na 001              -0.02        2.71466
   O 020 --   Na 003              -0.02        2.71466
   O 024 --   Na 001              -0.02        2.71466
   O 018 --   Na 003              -0.02        2.71466
   O 005 --    O 007              -0.05        2.71507
   O 001 --    O 003              -0.05        2.71507
   O 006 --    O 008              -0.05        2.71508
   O 002 --    O 004              -0.05        2.71508
   O 020 --    O 024              -0.04        2.76946
   O 018 --    O 022              -0.04        2.76946
   O 017 --    O 021              -0.04        2.76947
   O 019 --    O 023              -0.04        2.76947
   O 002 --    O 010              -0.06        2.77144
   O 008 --    O 016              -0.06        2.77144
   O 004 --    O 012              -0.06        2.77144
   O 006 --    O 014              -0.06        2.77144
   O 003 --    O 011              -0.06        2.77144
   O 001 --    O 009              -0.06        2.77144
   O 005 --    O 013              -0.06        2.77144
   O 007 --    O 015              -0.06        2.77144
   O 013 --    O 015              -0.05        2.79958
   O 009 --    O 011              -0.05        2.79958
   O 010 --    O 012              -0.05        2.79958
   O 014 --    O 016              -0.05        2.79958
   O 001 --    O 016              -0.04        2.80512
   O 003 --    O 014              -0.04        2.80512
   O 007 --    O 010              -0.04        2.80512
   O 005 --    O 012              -0.04        2.80512
   O 004 --    O 013              -0.04        2.80512
   O 006 --    O 011              -0.04        2.80512
   O 002 --    O 015              -0.04        2.80512
   O 008 --    O 009              -0.04        2.80512
   O 014 --    O 017              -0.03        2.89797
   O 016 --    O 019              -0.03        2.89797
   O 010 --    O 021              -0.03        2.89797
   O 012 --    O 023              -0.03        2.89797
   O 013 --    O 018              -0.03        2.89798
   O 011 --    O 024              -0.03        2.89798
   O 009 --    O 022              -0.03        2.89798
   O 015 --    O 020              -0.03        2.89798
   O 004 --    O 006              -0.06        2.92438
   O 002 --    O 008              -0.06        2.92438
   O 001 --    O 007              -0.06        2.92438
   O 003 --    O 005              -0.06        2.92438
============================================================
 
 
Writing model to jadeite_4_30_GPa_cij__3__2.check
 
Writing analysis data to jadeite_4_30_GPa_cij__3__2.castep_bin
Initialisation time =      1.98 s
Calculation time    =   1435.72 s
Finalisation time   =      0.75 s
Total time          =   1438.45 s
Peak Memory Use     = 221636 kB
