 +-------------------------------------------------+
 |                                                 |
 |      CCC   AA    SSS  TTTTT  EEEEE  PPPP        |
 |     C     A  A  S       T    E      P   P       |
 |     C     AAAA   SS     T    EEE    PPPP        |
 |     C     A  A     S    T    E      P           |
 |      CCC  A  A  SSS     T    EEEEE  P           |
 |                                                 |
 +-------------------------------------------------+
 |                                                 |
 | Welcome to Academic Release CASTEP version 5.02 |
 | Ab Initio Total Energy Program                  |
 |                                                 |
 | Authors:                                        |
 | M. Segall, M. Probert, C. Pickard, P. Hasnip,   |
 | S. Clark, K. Refson, M. Payne                   |
 |                                                 |
 | Contributors:                                   |
 | P. Lindan, P. Haynes, J. White, V. Milman,      |
 | N. Govind, M. Gibson, P. Tulip, V. Cocula,      |
 | B. Montanari, D. Quigley, M. Glover,            |
 | L. Bernasconi, A. Perlov, M. Plummer            |
 |                                                 |
 | Copyright (c) 2000 - 2009                       |
 |                                                 |
 |     Distributed under the terms of an           |
 |     Agreement between the United Kingdom        |
 |     Car-Parrinello (UKCP) Consortium,           |
 |     Daresbury Laboratory and Accelrys, Inc.     |
 |                                                 |
 | Please cite                                     |
 |                                                 |
 |     "First principles methods using CASTEP"     |
 |                                                 |
 |         Zeitschrift fuer Kristallographie       |
 |           220(5-6) pp. 567-570 (2005)           |
 |                                                 |
 | S. J. Clark, M. D. Segall, C. J. Pickard,       |
 | P. J. Hasnip, M. J. Probert, K. Refson,         |
 | M. C. Payne                                     |
 |                                                 |
 |       in all publications arising from          |
 |              your use of CASTEP                 |
 |                                                 |
 +-------------------------------------------------+
 
 
 Pseudo atomic calculation performed for O 2s2 2p4
 
 Converged in 36 iterations to a total energy of -429.6485 eV
 
 
 Pseudo atomic calculation performed for Na 2s2 2p6 3s1
 
 Converged in 33 iterations to a total energy of -1302.8467 eV
 
 
 Pseudo atomic calculation performed for Al 3s2 3p1
 
 Converged in 20 iterations to a total energy of -52.7392 eV
 
 
 Pseudo atomic calculation performed for Si 3s2 3p2
 
 Converged in 21 iterations to a total energy of -101.9044 eV
 
Calculation parallelised over   36 nodes.
K-points are distributed over    3 groups, each containing   12 nodes.

 ************************************ Title ************************************
 

 ***************************** General Parameters ******************************
  
 output verbosity                               : normal  (1)
 write checkpoint data to                       : jadeite_4_30_GPa_cij__3__6.check
 type of calculation                            : geometry optimization
 stress calculation                             : on
 density difference calculation                 : off
 electron localisation func (ELF) calculation   : off
 Hirshfeld analysis                             : off
 unlimited duration calculation
 timing information                             : on
 memory usage estimate                          : on
 write final potential to formatted file        : off
 write final density to formatted file          : off
  
 output         length unit                     : A
 output           mass unit                     : amu
 output           time unit                     : ps
 output         charge unit                     : e
 output         energy unit                     : eV
 output          force unit                     : eV/A
 output       velocity unit                     : A/ps
 output       pressure unit                     : GPa
 output     inv_length unit                     : 1/A
 output      frequency unit                     : cm-1
 output force constant unit                     : eV/A**2
 output         volume unit                     : A**3
 output   IR intensity unit                     : (D/A)**2/amu
 output         dipole unit                     : D
 output         efield unit                     : eV/A/e
  
 wavefunctions paging                           : none
 data distribution                              : optimal for this architecture
 optimization strategy                          : maximize speed(+++)

 *********************** Exchange-Correlation Parameters ***********************
  
 using functional                               : Perdew Burke Ernzerhof
 Divergence correction                          : off
 DFT+D: Semi-empirical dispersion correction    : off

 ************************* Pseudopotential Parameters **************************
  
 pseudopotential representation                 : reciprocal space
 <beta|phi> representation                      : reciprocal space

 **************************** Basis Set Parameters *****************************
  
 plane wave basis set cut-off                   :   700.0000   eV
 finite basis set correction                    : none

 **************************** Electronic Parameters ****************************
  
 number of  electrons                           :  224.0    
 net charge of system                           :  0.000    
 net spin   of system                           :  0.000    
 number of  up  spins                           :  112.0    
 number of down spins                           :  112.0    
 treating system as non-spin-polarized
 number of bands                                :        112

 ********************* Electronic Minimization Parameters **********************
  
 Method: Treating system as non-metallic,
         and number of  SD  steps               :          1
         and number of  CG  steps               :          4
  
 total energy / atom convergence tol.           : 0.1000E-07   eV
 max force / atom convergence tol.              : ignored
 convergence tolerance window                   :          3   cycles
 max. number of SCF cycles                      :        100

 *********************** Population Analysis Parameters ************************
  
 Population analysis with cutoff                :  3.000       A

 ********************** Geometry Optimization Parameters ***********************
  
 optimization method                            : BFGS
 variable cell method                           : fixed basis quality
 max. number of steps                           :        300
 estimated bulk modulus                         :  500.0       GPa
 estimated <frequency>                          :  1668.       cm-1
 line minimiser tolerance                       :     0.4000
 total energy convergence tolerance             : 0.2000E-06   eV/atom
        max ionic |force| tolerance             : 0.1000E-02   eV/A
 max ionic |displacement| tolerance             : 0.1000E-02   A
   max |stress component| tolerance             : 0.1000E-02   GPa
 convergence tolerance window                   :          2   steps
 backup results every                           :          1   steps

 *******************************************************************************
  
 
                           -------------------------------
                                      Unit Cell
                           -------------------------------
        Real Lattice(A)                      Reciprocal Lattice(1/A)
   8.9813393   0.0000000  -2.8290832        0.6995822   0.0000000   0.0000000
   0.0000000   8.4603493   0.0000000        0.0000000   0.7426626   0.0000000
   0.0000000   0.0000000   5.2199179        0.3791585   0.0000000   1.2036943
 
                       Lattice parameters(A)       Cell Angles
                    a =    9.416378          alpha =   90.000000
                    b =    8.460349          beta  =  107.484203
                    c =    5.219918          gamma =   90.000000
 
                       Current cell volume =  396.636858       A**3
 
                           -------------------------------
                                     Cell Contents
                           -------------------------------
                         Total number of ions in cell =   40
                      Total number of species in cell =    4
                        Max number of any one species =   24
 
            xxxxxxxxxxxxxxxxxxxxxxxxxxxxxxxxxxxxxxxxxxxxxxxxxxxxxxxxxxxx
            x  Element    Atom        Fractional coordinates of atoms  x
            x            Number           u          v          w      x
            x----------------------------------------------------------x
            x  O            1         0.109277   0.076953   0.129205   x
            x  O            2         0.609279   0.576951   0.129208   x
            x  O            3         0.890723   0.076953   0.370795   x
            x  O            4         0.390721   0.576951   0.370792   x
            x  O            5         0.890723   0.923047   0.870795   x
            x  O            6         0.390721   0.423048   0.870792   x
            x  O            7         0.109277   0.923047   0.629205   x
            x  O            8         0.609279   0.423048   0.629208   x
            x  O            9         0.361047   0.263746   0.295383   x
            x  O           10         0.861046   0.763747   0.295382   x
            x  O           11         0.638953   0.263746   0.204617   x
            x  O           12         0.138954   0.763747   0.204618   x
            x  O           13         0.638953   0.736253   0.704617   x
            x  O           14         0.138954   0.236253   0.704618   x
            x  O           15         0.361047   0.736253   0.795383   x
            x  O           16         0.861046   0.236253   0.795382   x
            x  O           17         0.354029   0.008469   1.005059   x
            x  O           18         0.854032   0.508466   1.005069   x
            x  O           19         0.645971   0.008469   0.494941   x
            x  O           20         0.145968   0.508466   0.494931   x
            x  O           21         0.645971   0.991530  -0.005059   x
            x  O           22         0.145968   0.491534  -0.005069   x
            x  O           23         0.354029   0.991530   0.505059   x
            x  O           24         0.854032   0.491534   0.505069   x
            x  Na           1         0.000000   0.301230   0.250000   x
            x  Na           2         0.500000   0.801234   0.250000   x
            x  Na           3         0.000000   0.698770   0.750000   x
            x  Na           4         0.500000   0.198765   0.750000   x
            x  Al           1         0.000000   0.906276   0.250000   x
            x  Al           2         0.500000   0.406276   0.250000   x
            x  Al           3         0.000000   0.093723   0.750000   x
            x  Al           4         0.500000   0.593723   0.750000   x
            x  Si           1         0.290869   0.093824   0.228100   x
            x  Si           2         0.790871   0.593823   0.228106   x
            x  Si           3         0.709131   0.093824   0.271900   x
            x  Si           4         0.209129   0.593823   0.271894   x
            x  Si           5         0.709131   0.906175   0.771900   x
            x  Si           6         0.209129   0.406176   0.771894   x
            x  Si           7         0.290869   0.906175   0.728100   x
            x  Si           8         0.790871   0.406176   0.728106   x
            xxxxxxxxxxxxxxxxxxxxxxxxxxxxxxxxxxxxxxxxxxxxxxxxxxxxxxxxxxxx
 
 
                         No user defined ionic velocities
 
                           -------------------------------
                                   Details of Species
                           -------------------------------
 
                               Mass of species in AMU
                                    O   15.9994000
                                    Na   22.9897700
                                    Al   26.9815400
                                    Si   28.0855000
 
                          Electric Quadrupole Moment (Barn)
                                    O   -0.0255800 Isotope 17
                                    Na    0.1040000 Isotope 23
                                    Al    0.1466000 Isotope 27
                                    Si    1.0000000 No Isotope Defined
 
                          Files used for pseudopotentials:
                                    O O_00PBE.usp
                                    Na Na_00PBE.usp
                                    Al Al_00PBE.usp
                                    Si Si_00PBE.usp
 
                           -------------------------------
                              k-Points For BZ Sampling
                           -------------------------------
                       MP grid size for SCF calculation is  2  2  3
                         Number of kpoints used = 3
 
             +++++++++++++++++++++++++++++++++++++++++++++++++++++++
             +  Number       Fractional coordinates        Weight  +
             +-----------------------------------------------------+
             +     1  -0.250000  -0.250000   0.333333   0.3333333  +
             +     2   0.250000   0.250000   0.000000   0.3333333  +
             +     3   0.250000   0.250000   0.333333   0.3333333  +
             +++++++++++++++++++++++++++++++++++++++++++++++++++++++
 
                           -------------------------------
                               Symmetry and Constraints
                           -------------------------------
 
                      Number of symmetry operations   = 4
                      Number of ionic constraints     = 3
                      Maximum deviation from symmetry = 0.247515E-14     ANG
               Point group of crystal =     5: C2h, 2/m, 2/m
           Set iprint > 1 for details on symmetry rotations/translations
 
                          Centre of mass is constrained
             Set iprint > 1 for details of linear ionic constraints
 
                         Number of cell constraints= 6
                         Cell constraints are:  0 0 0 0 0 0
 
                         External pressure/stress (GPa)
                          4.30000   0.00000   0.00000
                                    4.30000   0.00000
                                              4.30000
  
+---------------- MEMORY AND SCRATCH DISK ESTIMATES PER NODE -----------------+
|                                                     Memory          Disk    |
| Model and support data                               57.0 MB         0.0 MB |
| Electronic energy minimisation requirements          16.4 MB         0.0 MB |
|                                               ----------------------------- |
| Approx. total storage required per node              73.4 MB         0.0 MB |
|                                                                             |
| Requirements will fluctuate during execution and may exceed these estimates |
+-----------------------------------------------------------------------------+
------------------------------------------------------------------------ <-- SCF
SCF loop      Energy                           Energy gain       Timer   <-- SCF
                                               per atom          (sec)   <-- SCF
------------------------------------------------------------------------ <-- SCF
Initial  -1.70019770E+003                                          4.61  <-- SCF
      1  -1.65362827E+004                    3.70902126E+002      16.20  <-- SCF
      2  -1.68201664E+004                    7.09709266E+000      28.64  <-- SCF
      3  -1.68451987E+004                    6.25807058E-001      39.94  <-- SCF
      4  -1.68459072E+004                    1.77123132E-002      52.34  <-- SCF
      5  -1.68459131E+004                    1.46624932E-004      65.23  <-- SCF
      6  -1.68459132E+004                    3.29763838E-006      77.30  <-- SCF
      7  -1.68459132E+004                    9.97800542E-008      89.86  <-- SCF
      8  -1.68459132E+004                    3.14098532E-009     101.98  <-- SCF
      9  -1.68459132E+004                    9.96904952E-011     113.34  <-- SCF
------------------------------------------------------------------------ <-- SCF
 
Final energy =  -16845.91322391     eV
(energy not corrected for finite basis set)
 
 
Writing model to jadeite_4_30_GPa_cij__3__6.check
 
+---------------- MEMORY AND SCRATCH DISK ESTIMATES PER NODE -----------------+
|                                                     Memory          Disk    |
| Model and support data                               50.3 MB         0.0 MB |
| Geometry minimisation requirements                   19.1 MB         0.0 MB |
|                                               ----------------------------- |
| Approx. total storage required per node              69.3 MB         0.0 MB |
|                                                                             |
| Requirements will fluctuate during execution and may exceed these estimates |
+-----------------------------------------------------------------------------+
 
 
 *********************************** Forces ***********************************
 *                                                                            *
 *                        Cartesian components (eV/A)                         *
 * -------------------------------------------------------------------------- *
 *                   x                    y                    z              *
 *                                                                            *
 * O         1      0.04129              0.06246              0.00877         *
 * O         2      0.04113              0.06253              0.00873         *
 * O         3     -0.04129              0.06246             -0.00877         *
 * O         4     -0.04113              0.06253             -0.00873         *
 * O         5     -0.04129             -0.06246             -0.00877         *
 * O         6     -0.04113             -0.06253             -0.00873         *
 * O         7      0.04129             -0.06246              0.00877         *
 * O         8      0.04113             -0.06253              0.00873         *
 * O         9      0.16071              0.44043              0.04497         *
 * O        10      0.16084              0.44053              0.04497         *
 * O        11     -0.16071              0.44043             -0.04497         *
 * O        12     -0.16084              0.44053             -0.04497         *
 * O        13     -0.16071             -0.44043             -0.04497         *
 * O        14     -0.16084             -0.44053             -0.04497         *
 * O        15      0.16071             -0.44043              0.04497         *
 * O        16      0.16084             -0.44053              0.04497         *
 * O        17      0.04605              0.06142              0.02304         *
 * O        18      0.04599              0.06148              0.02299         *
 * O        19     -0.04605              0.06142             -0.02304         *
 * O        20     -0.04599              0.06148             -0.02299         *
 * O        21     -0.04605             -0.06142             -0.02304         *
 * O        22     -0.04599             -0.06148             -0.02299         *
 * O        23      0.04605             -0.06142              0.02304         *
 * O        24      0.04599             -0.06148              0.02299         *
 * Na        1      0.00000              0.01351              0.00000         *
 * Na        2      0.00000              0.01338              0.00000         *
 * Na        3      0.00000             -0.01351              0.00000         *
 * Na        4      0.00000             -0.01338              0.00000         *
 * Al        1      0.00000              0.08741              0.00000         *
 * Al        2      0.00000              0.08751              0.00000         *
 * Al        3      0.00000             -0.08741              0.00000         *
 * Al        4      0.00000             -0.08751              0.00000         *
 * Si        1     -0.26016             -0.33557             -0.04356         *
 * Si        2     -0.26037             -0.33556             -0.04356         *
 * Si        3      0.26016             -0.33557              0.04356         *
 * Si        4      0.26037             -0.33556              0.04356         *
 * Si        5      0.26016              0.33557              0.04356         *
 * Si        6      0.26037              0.33556              0.04356         *
 * Si        7     -0.26016              0.33557             -0.04356         *
 * Si        8     -0.26037              0.33556             -0.04356         *
 *                                                                            *
 ******************************************************************************
 BFGS: finished iteration     0 with enthalpy= -1.68352681E+004 eV
  
 +-----------+-----------------+-----------------+------------+-----+ <-- BFGS
 | Parameter |      value      |    tolerance    |    units   | OK? | <-- BFGS
 +-----------+-----------------+-----------------+------------+-----+ <-- BFGS
 |  dE/ion   |   0.000000E+000 |   2.000000E-007 |         eV | No  | <-- BFGS
 |  |F|max   |   4.711209E-001 |   1.000000E-003 |       eV/A | No  | <-- BFGS
 |  |dR|max  |   0.000000E+000 |   1.000000E-003 |          A | No  | <-- BFGS
 +-----------+-----------------+-----------------+------------+-----+ <-- BFGS
  

================================================================================
 Starting BFGS iteration          1 ...
================================================================================
 
Writing model to jadeite_4_30_GPa_cij__3__6.check
  
 +------------+-------------+-------------+-----------------+ <-- min BFGS
 |    Step    |   lambda    |   F.delta   |    enthalpy     | <-- min BFGS
 +------------+-------------+-------------+-----------------+ <-- min BFGS
 |  previous  |    0.000000 |    0.000597 |   -16835.268089 | <-- min BFGS
 +------------+-------------+-------------+-----------------+ <-- min BFGS
  

--------------------------------------------------------------------------------
 BFGS: starting iteration         1 with trial guess (lambda=  1.000000)
--------------------------------------------------------------------------------
 
                           -------------------------------
                                     Cell Contents
                           -------------------------------
 
            xxxxxxxxxxxxxxxxxxxxxxxxxxxxxxxxxxxxxxxxxxxxxxxxxxxxxxxxxxxx
            x  Element    Atom        Fractional coordinates of atoms  x
            x            Number           u          v          w      x
            x----------------------------------------------------------x
            x  O            1         0.109299   0.076989   0.129225   x
            x  O            2         0.609301   0.576987   0.129228   x
            x  O            3         0.890701   0.076989   0.370775   x
            x  O            4         0.390699   0.576987   0.370772   x
            x  O            5         0.890701   0.923011   0.870775   x
            x  O            6         0.390699   0.423013   0.870772   x
            x  O            7         0.109299   0.923011   0.629225   x
            x  O            8         0.609301   0.423013   0.629228   x
            x  O            9         0.361134   0.263998   0.295472   x
            x  O           10         0.861133   0.763999   0.295471   x
            x  O           11         0.638866   0.263998   0.204528   x
            x  O           12         0.138867   0.763999   0.204529   x
            x  O           13         0.638866   0.736002   0.704528   x
            x  O           14         0.138867   0.236001   0.704529   x
            x  O           15         0.361134   0.736002   0.795472   x
            x  O           16         0.861133   0.236001   0.795471   x
            x  O           17         0.354054   0.008505   1.005094   x
            x  O           18         0.854057   0.508501   1.005104   x
            x  O           19         0.645946   0.008505   0.494906   x
            x  O           20         0.145943   0.508501   0.494896   x
            x  O           21         0.645946   0.991495  -0.005094   x
            x  O           22         0.145943   0.491499  -0.005104   x
            x  O           23         0.354054   0.991495   0.505094   x
            x  O           24         0.854057   0.491499   0.505104   x
            x  Na           1         0.000000   0.301238   0.250000   x
            x  Na           2         0.500000   0.801242   0.250000   x
            x  Na           3         0.000000   0.698762   0.750000   x
            x  Na           4         0.500000   0.198758   0.750000   x
            x  Al           1         0.000000   0.906326   0.250000   x
            x  Al           2         0.500000   0.406327   0.250000   x
            x  Al           3         0.000000   0.093674   0.750000   x
            x  Al           4         0.500000   0.593673   0.750000   x
            x  Si           1         0.290729   0.093633   0.227984   x
            x  Si           2         0.790731   0.593632   0.227990   x
            x  Si           3         0.709271   0.093633   0.272016   x
            x  Si           4         0.209269   0.593632   0.272010   x
            x  Si           5         0.709271   0.906367   0.772016   x
            x  Si           6         0.209269   0.406368   0.772010   x
            x  Si           7         0.290729   0.906367   0.727984   x
            x  Si           8         0.790731   0.406368   0.727990   x
            xxxxxxxxxxxxxxxxxxxxxxxxxxxxxxxxxxxxxxxxxxxxxxxxxxxxxxxxxxxx
 
 
------------------------------------------------------------------------ <-- SCF
SCF loop      Energy                           Energy gain       Timer   <-- SCF
                                               per atom          (sec)   <-- SCF
------------------------------------------------------------------------ <-- SCF
Initial  -1.68458898E+004                                        120.36  <-- SCF
      1  -1.68459264E+004                    9.16379940E-004     132.34  <-- SCF
      2  -1.68459264E+004                    3.98854556E-007     145.03  <-- SCF
      3  -1.68459264E+004                    5.03796629E-009     156.61  <-- SCF
      4  -1.68459264E+004                    1.01005265E-010     168.52  <-- SCF
------------------------------------------------------------------------ <-- SCF
 
Final energy =  -16845.92642673     eV
(energy not corrected for finite basis set)
 
 
 *********************************** Forces ***********************************
 *                                                                            *
 *                        Cartesian components (eV/A)                         *
 * -------------------------------------------------------------------------- *
 *                   x                    y                    z              *
 *                                                                            *
 * O         1      0.01125              0.05273              0.01537         *
 * O         2      0.01109              0.05279              0.01534         *
 * O         3     -0.01125              0.05273             -0.01537         *
 * O         4     -0.01109              0.05279             -0.01534         *
 * O         5     -0.01125             -0.05273             -0.01537         *
 * O         6     -0.01109             -0.05279             -0.01534         *
 * O         7      0.01125             -0.05273              0.01537         *
 * O         8      0.01109             -0.05279              0.01534         *
 * O         9      0.08739              0.29435              0.04212         *
 * O        10      0.08749              0.29439              0.04212         *
 * O        11     -0.08739              0.29435             -0.04212         *
 * O        12     -0.08749              0.29439             -0.04212         *
 * O        13     -0.08739             -0.29435             -0.04212         *
 * O        14     -0.08749             -0.29439             -0.04212         *
 * O        15      0.08739             -0.29435              0.04212         *
 * O        16      0.08749             -0.29439              0.04212         *
 * O        17      0.04614              0.04937              0.00994         *
 * O        18      0.04606              0.04943              0.00989         *
 * O        19     -0.04614              0.04937             -0.00994         *
 * O        20     -0.04606              0.04943             -0.00989         *
 * O        21     -0.04614             -0.04937             -0.00994         *
 * O        22     -0.04606             -0.04943             -0.00989         *
 * O        23      0.04614             -0.04937              0.00994         *
 * O        24      0.04606             -0.04943              0.00989         *
 * Na        1      0.00000              0.01197              0.00000         *
 * Na        2      0.00000              0.01185              0.00000         *
 * Na        3      0.00000             -0.01197              0.00000         *
 * Na        4      0.00000             -0.01185              0.00000         *
 * Al        1      0.00000              0.07527              0.00000         *
 * Al        2      0.00000              0.07535              0.00000         *
 * Al        3      0.00000             -0.07527              0.00000         *
 * Al        4      0.00000             -0.07535              0.00000         *
 * Si        1     -0.16796             -0.17864             -0.02093         *
 * Si        2     -0.16813             -0.17860             -0.02094         *
 * Si        3      0.16796             -0.17864              0.02093         *
 * Si        4      0.16813             -0.17860              0.02094         *
 * Si        5      0.16796              0.17864              0.02093         *
 * Si        6      0.16813              0.17860              0.02094         *
 * Si        7     -0.16796              0.17864             -0.02093         *
 * Si        8     -0.16813              0.17860             -0.02094         *
 *                                                                            *
 ******************************************************************************
  
 +------------+-------------+-------------+-----------------+ <-- min BFGS
 |    Step    |   lambda    |   F.delta   |    enthalpy     | <-- min BFGS
 +------------+-------------+-------------+-----------------+ <-- min BFGS
 |  previous  |    0.000000 |    0.000597 |   -16835.268089 | <-- min BFGS
 | trial step |    1.000000 |    0.000374 |   -16835.281292 | <-- min BFGS
 +------------+-------------+-------------+-----------------+ <-- min BFGS
  

--------------------------------------------------------------------------------
 BFGS: improving iteration         1 with line minimization (lambda=  2.671058)
--------------------------------------------------------------------------------
 
                           -------------------------------
                                     Cell Contents
                           -------------------------------
 
            xxxxxxxxxxxxxxxxxxxxxxxxxxxxxxxxxxxxxxxxxxxxxxxxxxxxxxxxxxxx
            x  Element    Atom        Fractional coordinates of atoms  x
            x            Number           u          v          w      x
            x----------------------------------------------------------x
            x  O            1         0.109336   0.077048   0.129259   x
            x  O            2         0.609338   0.577047   0.129262   x
            x  O            3         0.890664   0.077048   0.370741   x
            x  O            4         0.390662   0.577047   0.370738   x
            x  O            5         0.890664   0.922952   0.870741   x
            x  O            6         0.390662   0.422953   0.870738   x
            x  O            7         0.109336   0.922952   0.629259   x
            x  O            8         0.609338   0.422953   0.629262   x
            x  O            9         0.361278   0.264419   0.295620   x
            x  O           10         0.861277   0.764420   0.295619   x
            x  O           11         0.638722   0.264419   0.204380   x
            x  O           12         0.138723   0.764420   0.204381   x
            x  O           13         0.638722   0.735581   0.704380   x
            x  O           14         0.138723   0.235580   0.704381   x
            x  O           15         0.361278   0.735581   0.795620   x
            x  O           16         0.861277   0.235580   0.795619   x
            x  O           17         0.354095   0.008563   1.005152   x
            x  O           18         0.854098   0.508560   1.005162   x
            x  O           19         0.645905   0.008563   0.494848   x
            x  O           20         0.145902   0.508560   0.494838   x
            x  O           21         0.645905   0.991437  -0.005152   x
            x  O           22         0.145902   0.491440  -0.005162   x
            x  O           23         0.354095   0.991437   0.505152   x
            x  O           24         0.854098   0.491440   0.505162   x
            x  Na           1         0.000000   0.301251   0.250000   x
            x  Na           2         0.500000   0.801255   0.250000   x
            x  Na           3         0.000000   0.698749   0.750000   x
            x  Na           4         0.500000   0.198745   0.750000   x
            x  Al           1         0.000000   0.906410   0.250000   x
            x  Al           2         0.500000   0.406410   0.250000   x
            x  Al           3         0.000000   0.093590   0.750000   x
            x  Al           4         0.500000   0.593590   0.750000   x
            x  Si           1         0.290495   0.093312   0.227789   x
            x  Si           2         0.790497   0.593311   0.227795   x
            x  Si           3         0.709505   0.093312   0.272211   x
            x  Si           4         0.209503   0.593311   0.272205   x
            x  Si           5         0.709505   0.906688   0.772211   x
            x  Si           6         0.209503   0.406689   0.772205   x
            x  Si           7         0.290495   0.906688   0.727789   x
            x  Si           8         0.790497   0.406689   0.727795   x
            xxxxxxxxxxxxxxxxxxxxxxxxxxxxxxxxxxxxxxxxxxxxxxxxxxxxxxxxxxxx
 
 
------------------------------------------------------------------------ <-- SCF
SCF loop      Energy                           Energy gain       Timer   <-- SCF
                                               per atom          (sec)   <-- SCF
------------------------------------------------------------------------ <-- SCF
Initial  -1.68458207E+004                                        173.46  <-- SCF
      1  -1.68459351E+004                    2.85832879E-003     185.11  <-- SCF
      2  -1.68459351E+004                    1.30252353E-006     197.54  <-- SCF
      3  -1.68459351E+004                    1.64510972E-008     211.65  <-- SCF
      4  -1.68459351E+004                    3.26294957E-010     225.65  <-- SCF
      5  -1.68459351E+004                    6.88320719E-012     240.66  <-- SCF
------------------------------------------------------------------------ <-- SCF
 
Final energy =  -16845.93510582     eV
(energy not corrected for finite basis set)
 
 
 *********************************** Forces ***********************************
 *                                                                            *
 *                        Cartesian components (eV/A)                         *
 * -------------------------------------------------------------------------- *
 *                   x                    y                    z              *
 *                                                                            *
 * O         1     -0.03968              0.03672              0.02639         *
 * O         2     -0.03984              0.03678              0.02636         *
 * O         3      0.03968              0.03672             -0.02639         *
 * O         4      0.03984              0.03678             -0.02636         *
 * O         5      0.03968             -0.03672             -0.02639         *
 * O         6      0.03984             -0.03678             -0.02636         *
 * O         7     -0.03968             -0.03672              0.02639         *
 * O         8     -0.03984             -0.03678              0.02636         *
 * O         9     -0.03209              0.05784              0.03821         *
 * O        10     -0.03204              0.05780              0.03822         *
 * O        11      0.03209              0.05784             -0.03821         *
 * O        12      0.03204              0.05780             -0.03822         *
 * O        13      0.03209             -0.05784             -0.03821         *
 * O        14      0.03204             -0.05780             -0.03822         *
 * O        15     -0.03209             -0.05784              0.03821         *
 * O        16     -0.03204             -0.05780              0.03822         *
 * O        17      0.04633              0.02930             -0.01200         *
 * O        18      0.04624              0.02936             -0.01205         *
 * O        19     -0.04633              0.02930              0.01200         *
 * O        20     -0.04624              0.02936              0.01205         *
 * O        21     -0.04633             -0.02930              0.01200         *
 * O        22     -0.04624             -0.02936              0.01205         *
 * O        23      0.04633             -0.02930             -0.01200         *
 * O        24      0.04624             -0.02936             -0.01205         *
 * Na        1      0.00000              0.00939              0.00000         *
 * Na        2      0.00000              0.00928              0.00000         *
 * Na        3      0.00000             -0.00939              0.00000         *
 * Na        4      0.00000             -0.00928              0.00000         *
 * Al        1      0.00000              0.05551              0.00000         *
 * Al        2      0.00000              0.05556              0.00000         *
 * Al        3      0.00000             -0.05551              0.00000         *
 * Al        4      0.00000             -0.05556              0.00000         *
 * Si        1     -0.01614              0.07601              0.01638         *
 * Si        2     -0.01622              0.07610              0.01637         *
 * Si        3      0.01614              0.07601             -0.01638         *
 * Si        4      0.01622              0.07610             -0.01637         *
 * Si        5      0.01614             -0.07601             -0.01638         *
 * Si        6      0.01622             -0.07610             -0.01637         *
 * Si        7     -0.01614             -0.07601              0.01638         *
 * Si        8     -0.01622             -0.07610              0.01637         *
 *                                                                            *
 ******************************************************************************
  
 +------------+-------------+-------------+-----------------+ <-- min BFGS
 |    Step    |   lambda    |   F.delta   |    enthalpy     | <-- min BFGS
 +------------+-------------+-------------+-----------------+ <-- min BFGS
 |  previous  |    0.000000 |    0.000597 |   -16835.268089 | <-- min BFGS
 | trial step |    1.000000 |    0.000374 |   -16835.281292 | <-- min BFGS
 |  line step |    2.671058 |    0.000010 |   -16835.289971 | <-- min BFGS
 +------------+-------------+-------------+-----------------+ <-- min BFGS
  
 BFGS: finished iteration     1 with enthalpy= -1.68352900E+004 eV
  
 +-----------+-----------------+-----------------+------------+-----+ <-- BFGS
 | Parameter |      value      |    tolerance    |    units   | OK? | <-- BFGS
 +-----------+-----------------+-----------------+------------+-----+ <-- BFGS
 |  dE/ion   |   5.470478E-004 |   2.000000E-007 |         eV | No  | <-- BFGS
 |  |F|max   |   7.951779E-002 |   1.000000E-003 |       eV/A | No  | <-- BFGS
 |  |dR|max  |   6.085942E-003 |   1.000000E-003 |          A | No  | <-- BFGS
 +-----------+-----------------+-----------------+------------+-----+ <-- BFGS
  

================================================================================
 Starting BFGS iteration          2 ...
================================================================================
 
Writing model to jadeite_4_30_GPa_cij__3__6.check
  
 +------------+-------------+-------------+-----------------+ <-- min BFGS
 |    Step    |   lambda    |   F.delta   |    enthalpy     | <-- min BFGS
 +------------+-------------+-------------+-----------------+ <-- min BFGS
 |  previous  |    0.000000 |    0.000030 |   -16835.289971 | <-- min BFGS
 +------------+-------------+-------------+-----------------+ <-- min BFGS
  

--------------------------------------------------------------------------------
 BFGS: starting iteration         2 with trial guess (lambda=  1.000000)
--------------------------------------------------------------------------------
 
                           -------------------------------
                                     Cell Contents
                           -------------------------------
 
            xxxxxxxxxxxxxxxxxxxxxxxxxxxxxxxxxxxxxxxxxxxxxxxxxxxxxxxxxxxx
            x  Element    Atom        Fractional coordinates of atoms  x
            x            Number           u          v          w      x
            x----------------------------------------------------------x
            x  O            1         0.109316   0.077073   0.129274   x
            x  O            2         0.609318   0.577071   0.129276   x
            x  O            3         0.890684   0.077073   0.370726   x
            x  O            4         0.390682   0.577071   0.370724   x
            x  O            5         0.890684   0.922927   0.870726   x
            x  O            6         0.390682   0.422929   0.870724   x
            x  O            7         0.109316   0.922927   0.629274   x
            x  O            8         0.609318   0.422929   0.629276   x
            x  O            9         0.361267   0.264472   0.295653   x
            x  O           10         0.861267   0.764473   0.295652   x
            x  O           11         0.638733   0.264472   0.204347   x
            x  O           12         0.138733   0.764473   0.204348   x
            x  O           13         0.638733   0.735528   0.704347   x
            x  O           14         0.138733   0.235527   0.704348   x
            x  O           15         0.361267   0.735528   0.795653   x
            x  O           16         0.861267   0.235527   0.795652   x
            x  O           17         0.354123   0.008583   1.005157   x
            x  O           18         0.854125   0.508580   1.005167   x
            x  O           19         0.645877   0.008583   0.494843   x
            x  O           20         0.145875   0.508580   0.494833   x
            x  O           21         0.645877   0.991417  -0.005157   x
            x  O           22         0.145875   0.491420  -0.005167   x
            x  O           23         0.354123   0.991417   0.505157   x
            x  O           24         0.854125   0.491420   0.505167   x
            x  Na           1         0.000000   0.301257   0.250000   x
            x  Na           2         0.500000   0.801261   0.250000   x
            x  Na           3         0.000000   0.698743   0.750000   x
            x  Na           4         0.500000   0.198739   0.750000   x
            x  Al           1         0.000000   0.906446   0.250000   x
            x  Al           2         0.500000   0.406446   0.250000   x
            x  Al           3         0.000000   0.093554   0.750000   x
            x  Al           4         0.500000   0.593554   0.750000   x
            x  Si           1         0.290475   0.093341   0.227791   x
            x  Si           2         0.790477   0.593340   0.227797   x
            x  Si           3         0.709525   0.093341   0.272209   x
            x  Si           4         0.209523   0.593340   0.272203   x
            x  Si           5         0.709525   0.906659   0.772209   x
            x  Si           6         0.209523   0.406660   0.772203   x
            x  Si           7         0.290475   0.906659   0.727791   x
            x  Si           8         0.790477   0.406660   0.727797   x
            xxxxxxxxxxxxxxxxxxxxxxxxxxxxxxxxxxxxxxxxxxxxxxxxxxxxxxxxxxxx
 
 
------------------------------------------------------------------------ <-- SCF
SCF loop      Energy                           Energy gain       Timer   <-- SCF
                                               per atom          (sec)   <-- SCF
------------------------------------------------------------------------ <-- SCF
Initial  -1.68459335E+004                                        247.27  <-- SCF
      1  -1.68459359E+004                    6.00231493E-005     261.08  <-- SCF
      2  -1.68459359E+004                    2.56942391E-008     274.93  <-- SCF
      3  -1.68459359E+004                    2.11755295E-010     289.58  <-- SCF
      4  -1.68459359E+004                    4.87238262E-012     308.16  <-- SCF
------------------------------------------------------------------------ <-- SCF
 
Final energy =  -16845.93589522     eV
(energy not corrected for finite basis set)
 
 
 *********************************** Forces ***********************************
 *                                                                            *
 *                        Cartesian components (eV/A)                         *
 * -------------------------------------------------------------------------- *
 *                   x                    y                    z              *
 *                                                                            *
 * O         1     -0.03674              0.03623              0.02569         *
 * O         2     -0.03688              0.03629              0.02566         *
 * O         3      0.03674              0.03623             -0.02569         *
 * O         4      0.03688              0.03629             -0.02566         *
 * O         5      0.03674             -0.03623             -0.02569         *
 * O         6      0.03688             -0.03629             -0.02566         *
 * O         7     -0.03674             -0.03623              0.02569         *
 * O         8     -0.03688             -0.03629              0.02566         *
 * O         9     -0.03584              0.04903              0.03682         *
 * O        10     -0.03579              0.04900              0.03683         *
 * O        11      0.03584              0.04903             -0.03682         *
 * O        12      0.03579              0.04900             -0.03683         *
 * O        13      0.03584             -0.04903             -0.03682         *
 * O        14      0.03579             -0.04900             -0.03683         *
 * O        15     -0.03584             -0.04903              0.03682         *
 * O        16     -0.03579             -0.04900              0.03683         *
 * O        17      0.03856              0.02850             -0.01099         *
 * O        18      0.03845              0.02855             -0.01103         *
 * O        19     -0.03856              0.02850              0.01099         *
 * O        20     -0.03845              0.02855              0.01103         *
 * O        21     -0.03856             -0.02850              0.01099         *
 * O        22     -0.03845             -0.02855              0.01103         *
 * O        23      0.03856             -0.02850             -0.01099         *
 * O        24      0.03845             -0.02855             -0.01103         *
 * Na        1      0.00000              0.01118              0.00000         *
 * Na        2      0.00000              0.01107              0.00000         *
 * Na        3      0.00000             -0.01118              0.00000         *
 * Na        4      0.00000             -0.01107              0.00000         *
 * Al        1      0.00000              0.05212              0.00000         *
 * Al        2      0.00000              0.05215              0.00000         *
 * Al        3      0.00000             -0.05212              0.00000         *
 * Al        4      0.00000             -0.05215              0.00000         *
 * Si        1     -0.00568              0.07333              0.01597         *
 * Si        2     -0.00577              0.07340              0.01596         *
 * Si        3      0.00568              0.07333             -0.01597         *
 * Si        4      0.00577              0.07340             -0.01596         *
 * Si        5      0.00568             -0.07333             -0.01597         *
 * Si        6      0.00577             -0.07340             -0.01596         *
 * Si        7     -0.00568             -0.07333              0.01597         *
 * Si        8     -0.00577             -0.07340              0.01596         *
 *                                                                            *
 ******************************************************************************
  
 +------------+-------------+-------------+-----------------+ <-- min BFGS
 |    Step    |   lambda    |   F.delta   |    enthalpy     | <-- min BFGS
 +------------+-------------+-------------+-----------------+ <-- min BFGS
 |  previous  |    0.000000 |    0.000030 |   -16835.289971 | <-- min BFGS
 | trial step |    1.000000 |    0.000028 |   -16835.290761 | <-- min BFGS
 +------------+-------------+-------------+-----------------+ <-- min BFGS
  

--------------------------------------------------------------------------------
 BFGS: improving iteration         2 with line minimization (lambda= 10.614877)
--------------------------------------------------------------------------------
 
                           -------------------------------
                                     Cell Contents
                           -------------------------------
 
            xxxxxxxxxxxxxxxxxxxxxxxxxxxxxxxxxxxxxxxxxxxxxxxxxxxxxxxxxxxx
            x  Element    Atom        Fractional coordinates of atoms  x
            x            Number           u          v          w      x
            x----------------------------------------------------------x
            x  O            1         0.109124   0.077305   0.129415   x
            x  O            2         0.609125   0.577304   0.129417   x
            x  O            3         0.890876   0.077305   0.370585   x
            x  O            4         0.390875   0.577304   0.370583   x
            x  O            5         0.890876   0.922695   0.870585   x
            x  O            6         0.390875   0.422696   0.870583   x
            x  O            7         0.109124   0.922695   0.629415   x
            x  O            8         0.609125   0.422696   0.629417   x
            x  O            9         0.361164   0.264986   0.295975   x
            x  O           10         0.861163   0.764987   0.295974   x
            x  O           11         0.638836   0.264986   0.204025   x
            x  O           12         0.138837   0.764987   0.204026   x
            x  O           13         0.638836   0.735014   0.704025   x
            x  O           14         0.138837   0.235013   0.704026   x
            x  O           15         0.361164   0.735014   0.795975   x
            x  O           16         0.861163   0.235013   0.795974   x
            x  O           17         0.354385   0.008773   1.005207   x
            x  O           18         0.854388   0.508770   1.005216   x
            x  O           19         0.645615   0.008773   0.494793   x
            x  O           20         0.145612   0.508770   0.494784   x
            x  O           21         0.645615   0.991227  -0.005207   x
            x  O           22         0.145612   0.491230  -0.005216   x
            x  O           23         0.354385   0.991227   0.505207   x
            x  O           24         0.854388   0.491230   0.505216   x
            x  Na           1         0.000000   0.301315   0.250000   x
            x  Na           2         0.500000   0.801319   0.250000   x
            x  Na           3         0.000000   0.698685   0.750000   x
            x  Na           4         0.500000   0.198681   0.750000   x
            x  Al           1         0.000000   0.906794   0.250000   x
            x  Al           2         0.500000   0.406795   0.250000   x
            x  Al           3         0.000000   0.093206   0.750000   x
            x  Al           4         0.500000   0.593205   0.750000   x
            x  Si           1         0.290284   0.093621   0.227805   x
            x  Si           2         0.790285   0.593621   0.227811   x
            x  Si           3         0.709716   0.093621   0.272195   x
            x  Si           4         0.209715   0.593621   0.272189   x
            x  Si           5         0.709716   0.906379   0.772195   x
            x  Si           6         0.209715   0.406379   0.772189   x
            x  Si           7         0.290284   0.906379   0.727805   x
            x  Si           8         0.790285   0.406379   0.727811   x
            xxxxxxxxxxxxxxxxxxxxxxxxxxxxxxxxxxxxxxxxxxxxxxxxxxxxxxxxxxxx
 
 
------------------------------------------------------------------------ <-- SCF
SCF loop      Energy                           Energy gain       Timer   <-- SCF
                                               per atom          (sec)   <-- SCF
------------------------------------------------------------------------ <-- SCF
Initial  -1.68457778E+004                                        314.25  <-- SCF
      1  -1.68459394E+004                    4.04222307E-003     329.10  <-- SCF
      2  -1.68459395E+004                    1.73397432E-006     343.71  <-- SCF
      3  -1.68459395E+004                    1.34913181E-008     358.34  <-- SCF
      4  -1.68459395E+004                    2.81206083E-010     374.18  <-- SCF
      5  -1.68459395E+004                    7.73394067E-012     391.95  <-- SCF
------------------------------------------------------------------------ <-- SCF
 
Final energy =  -16845.93950974     eV
(energy not corrected for finite basis set)
 
 
 *********************************** Forces ***********************************
 *                                                                            *
 *                        Cartesian components (eV/A)                         *
 * -------------------------------------------------------------------------- *
 *                   x                    y                    z              *
 *                                                                            *
 * O         1     -0.00865              0.03149              0.01890         *
 * O         2     -0.00860              0.03157              0.01890         *
 * O         3      0.00865              0.03149             -0.01890         *
 * O         4      0.00860              0.03157             -0.01890         *
 * O         5      0.00865             -0.03149             -0.01890         *
 * O         6      0.00860             -0.03157             -0.01890         *
 * O         7     -0.00865             -0.03149              0.01890         *
 * O         8     -0.00860             -0.03157              0.01890         *
 * O         9     -0.07166             -0.03519              0.02344         *
 * O        10     -0.07162             -0.03517              0.02348         *
 * O        11      0.07166             -0.03519             -0.02344         *
 * O        12      0.07162             -0.03517             -0.02348         *
 * O        13      0.07166              0.03519             -0.02344         *
 * O        14      0.07162              0.03517             -0.02348         *
 * O        15     -0.07166              0.03519              0.02344         *
 * O        16     -0.07162              0.03517              0.02348         *
 * O        17     -0.03606              0.02063             -0.00124         *
 * O        18     -0.03621              0.02067             -0.00128         *
 * O        19      0.03606              0.02063              0.00124         *
 * O        20      0.03621              0.02067              0.00128         *
 * O        21      0.03606             -0.02063              0.00124         *
 * O        22      0.03621             -0.02067              0.00128         *
 * O        23     -0.03606             -0.02063             -0.00124         *
 * O        24     -0.03621             -0.02067             -0.00128         *
 * Na        1      0.00000              0.02842              0.00000         *
 * Na        2      0.00000              0.02833              0.00000         *
 * Na        3      0.00000             -0.02842              0.00000         *
 * Na        4      0.00000             -0.02833              0.00000         *
 * Al        1      0.00000              0.01951              0.00000         *
 * Al        2      0.00000              0.01948              0.00000         *
 * Al        3      0.00000             -0.01951              0.00000         *
 * Al        4      0.00000             -0.01948              0.00000         *
 * Si        1      0.09456              0.04736              0.01198         *
 * Si        2      0.09447              0.04725              0.01193         *
 * Si        3     -0.09456              0.04736             -0.01198         *
 * Si        4     -0.09447              0.04725             -0.01193         *
 * Si        5     -0.09456             -0.04736             -0.01198         *
 * Si        6     -0.09447             -0.04725             -0.01193         *
 * Si        7      0.09456             -0.04736              0.01198         *
 * Si        8      0.09447             -0.04725              0.01193         *
 *                                                                            *
 ******************************************************************************
  
 +------------+-------------+-------------+-----------------+ <-- min BFGS
 |    Step    |   lambda    |   F.delta   |    enthalpy     | <-- min BFGS
 +------------+-------------+-------------+-----------------+ <-- min BFGS
 |  previous  |    0.000000 |    0.000030 |   -16835.289971 | <-- min BFGS
 | trial step |    1.000000 |    0.000028 |   -16835.290761 | <-- min BFGS
 |  line step |   10.614877 |    0.000000 |   -16835.294375 | <-- min BFGS
 +------------+-------------+-------------+-----------------+ <-- min BFGS
  
 BFGS: finished iteration     2 with enthalpy= -1.68352944E+004 eV
  
 +-----------+-----------------+-----------------+------------+-----+ <-- BFGS
 | Parameter |      value      |    tolerance    |    units   | OK? | <-- BFGS
 +-----------+-----------------+-----------------+------------+-----+ <-- BFGS
 |  dE/ion   |   1.100981E-004 |   2.000000E-007 |         eV | No  | <-- BFGS
 |  |F|max   |   1.064335E-001 |   1.000000E-003 |       eV/A | No  | <-- BFGS
 |  |dR|max  |   5.368610E-003 |   1.000000E-003 |          A | No  | <-- BFGS
 +-----------+-----------------+-----------------+------------+-----+ <-- BFGS
  

================================================================================
 Starting BFGS iteration          3 ...
================================================================================
 
Writing model to jadeite_4_30_GPa_cij__3__6.check
  
 +------------+-------------+-------------+-----------------+ <-- min BFGS
 |    Step    |   lambda    |   F.delta   |    enthalpy     | <-- min BFGS
 +------------+-------------+-------------+-----------------+ <-- min BFGS
 |  previous  |    0.000000 |    0.000054 |   -16835.294375 | <-- min BFGS
 +------------+-------------+-------------+-----------------+ <-- min BFGS
  

--------------------------------------------------------------------------------
 BFGS: starting iteration         3 with trial guess (lambda=  1.000000)
--------------------------------------------------------------------------------
 
                           -------------------------------
                                     Cell Contents
                           -------------------------------
 
            xxxxxxxxxxxxxxxxxxxxxxxxxxxxxxxxxxxxxxxxxxxxxxxxxxxxxxxxxxxx
            x  Element    Atom        Fractional coordinates of atoms  x
            x            Number           u          v          w      x
            x----------------------------------------------------------x
            x  O            1         0.109082   0.077354   0.129449   x
            x  O            2         0.609082   0.577353   0.129451   x
            x  O            3         0.890918   0.077354   0.370551   x
            x  O            4         0.390918   0.577353   0.370549   x
            x  O            5         0.890918   0.922646   0.870551   x
            x  O            6         0.390918   0.422647   0.870549   x
            x  O            7         0.109082   0.922646   0.629449   x
            x  O            8         0.609082   0.422647   0.629451   x
            x  O            9         0.361087   0.264992   0.296009   x
            x  O           10         0.861086   0.764993   0.296008   x
            x  O           11         0.638913   0.264992   0.203991   x
            x  O           12         0.138914   0.764993   0.203992   x
            x  O           13         0.638913   0.735008   0.703991   x
            x  O           14         0.138914   0.235007   0.703992   x
            x  O           15         0.361087   0.735008   0.796009   x
            x  O           16         0.861086   0.235007   0.796008   x
            x  O           17         0.354404   0.008809   1.005195   x
            x  O           18         0.854407   0.508806   1.005204   x
            x  O           19         0.645596   0.008809   0.494805   x
            x  O           20         0.145593   0.508806   0.494796   x
            x  O           21         0.645596   0.991191  -0.005195   x
            x  O           22         0.145593   0.491194  -0.005204   x
            x  O           23         0.354404   0.991191   0.505195   x
            x  O           24         0.854407   0.491194   0.505204   x
            x  Na           1         0.000000   0.301339   0.250000   x
            x  Na           2         0.500000   0.801343   0.250000   x
            x  Na           3         0.000000   0.698661   0.750000   x
            x  Na           4         0.500000   0.198657   0.750000   x
            x  Al           1         0.000000   0.906853   0.250000   x
            x  Al           2         0.500000   0.406853   0.250000   x
            x  Al           3         0.000000   0.093147   0.750000   x
            x  Al           4         0.500000   0.593147   0.750000   x
            x  Si           1         0.290337   0.093742   0.227875   x
            x  Si           2         0.790338   0.593742   0.227880   x
            x  Si           3         0.709663   0.093742   0.272125   x
            x  Si           4         0.209662   0.593742   0.272120   x
            x  Si           5         0.709663   0.906258   0.772125   x
            x  Si           6         0.209662   0.406258   0.772120   x
            x  Si           7         0.290337   0.906258   0.727875   x
            x  Si           8         0.790338   0.406258   0.727880   x
            xxxxxxxxxxxxxxxxxxxxxxxxxxxxxxxxxxxxxxxxxxxxxxxxxxxxxxxxxxxx
 
 
------------------------------------------------------------------------ <-- SCF
SCF loop      Energy                           Energy gain       Timer   <-- SCF
                                               per atom          (sec)   <-- SCF
------------------------------------------------------------------------ <-- SCF
Initial  -1.68459332E+004                                        399.23  <-- SCF
      1  -1.68459406E+004                    1.84160380E-004     414.12  <-- SCF
      2  -1.68459406E+004                    8.95523817E-008     429.28  <-- SCF
      3  -1.68459406E+004                    8.38591186E-010     444.37  <-- SCF
      4  -1.68459406E+004                    1.69373301E-011     459.78  <-- SCF
------------------------------------------------------------------------ <-- SCF
 
Final energy =  -16845.94055634     eV
(energy not corrected for finite basis set)
 
 
 *********************************** Forces ***********************************
 *                                                                            *
 *                        Cartesian components (eV/A)                         *
 * -------------------------------------------------------------------------- *
 *                   x                    y                    z              *
 *                                                                            *
 * O         1      0.01374              0.03299              0.01400         *
 * O         2      0.01379              0.03306              0.01400         *
 * O         3     -0.01374              0.03299             -0.01400         *
 * O         4     -0.01379              0.03306             -0.01400         *
 * O         5     -0.01374             -0.03299             -0.01400         *
 * O         6     -0.01379             -0.03306             -0.01400         *
 * O         7      0.01374             -0.03299              0.01400         *
 * O         8      0.01379             -0.03306              0.01400         *
 * O         9     -0.04623              0.00387              0.02131         *
 * O        10     -0.04620              0.00389              0.02134         *
 * O        11      0.04623              0.00387             -0.02131         *
 * O        12      0.04620              0.00389             -0.02134         *
 * O        13      0.04623             -0.00387             -0.02131         *
 * O        14      0.04620             -0.00389             -0.02134         *
 * O        15     -0.04623             -0.00387              0.02131         *
 * O        16     -0.04620             -0.00389              0.02134         *
 * O        17     -0.04271              0.02227              0.00308         *
 * O        18     -0.04286              0.02230              0.00303         *
 * O        19      0.04271              0.02227             -0.00308         *
 * O        20      0.04286              0.02230             -0.00303         *
 * O        21      0.04271             -0.02227             -0.00308         *
 * O        22      0.04286             -0.02230             -0.00303         *
 * O        23     -0.04271             -0.02227              0.00308         *
 * O        24     -0.04286             -0.02230              0.00303         *
 * Na        1      0.00000              0.03009              0.00000         *
 * Na        2      0.00000              0.03000              0.00000         *
 * Na        3      0.00000             -0.03009              0.00000         *
 * Na        4      0.00000             -0.03000              0.00000         *
 * Al        1      0.00000              0.01816              0.00000         *
 * Al        2      0.00000              0.01812              0.00000         *
 * Al        3      0.00000             -0.01816              0.00000         *
 * Al        4      0.00000             -0.01812              0.00000         *
 * Si        1      0.06174             -0.01079              0.00495         *
 * Si        2      0.06166             -0.01088              0.00490         *
 * Si        3     -0.06174             -0.01079             -0.00495         *
 * Si        4     -0.06166             -0.01088             -0.00490         *
 * Si        5     -0.06174              0.01079             -0.00495         *
 * Si        6     -0.06166              0.01088             -0.00490         *
 * Si        7      0.06174              0.01079              0.00495         *
 * Si        8      0.06166              0.01088              0.00490         *
 *                                                                            *
 ******************************************************************************
  
 +------------+-------------+-------------+-----------------+ <-- min BFGS
 |    Step    |   lambda    |   F.delta   |    enthalpy     | <-- min BFGS
 +------------+-------------+-------------+-----------------+ <-- min BFGS
 |  previous  |    0.000000 |    0.000054 |   -16835.294375 | <-- min BFGS
 | trial step |    1.000000 |    0.000023 |   -16835.295422 | <-- min BFGS
 +------------+-------------+-------------+-----------------+ <-- min BFGS
  

--------------------------------------------------------------------------------
 BFGS: improving iteration         3 with line minimization (lambda=  1.759848)
--------------------------------------------------------------------------------
 
                           -------------------------------
                                     Cell Contents
                           -------------------------------
 
            xxxxxxxxxxxxxxxxxxxxxxxxxxxxxxxxxxxxxxxxxxxxxxxxxxxxxxxxxxxx
            x  Element    Atom        Fractional coordinates of atoms  x
            x            Number           u          v          w      x
            x----------------------------------------------------------x
            x  O            1         0.109049   0.077391   0.129475   x
            x  O            2         0.609050   0.577390   0.129476   x
            x  O            3         0.890951   0.077391   0.370525   x
            x  O            4         0.390950   0.577390   0.370524   x
            x  O            5         0.890951   0.922609   0.870525   x
            x  O            6         0.390950   0.422610   0.870524   x
            x  O            7         0.109049   0.922609   0.629475   x
            x  O            8         0.609050   0.422610   0.629476   x
            x  O            9         0.361028   0.264997   0.296034   x
            x  O           10         0.861028   0.764997   0.296034   x
            x  O           11         0.638972   0.264997   0.203966   x
            x  O           12         0.138972   0.764997   0.203966   x
            x  O           13         0.638972   0.735003   0.703966   x
            x  O           14         0.138972   0.235003   0.703966   x
            x  O           15         0.361028   0.735003   0.796034   x
            x  O           16         0.861028   0.235003   0.796034   x
            x  O           17         0.354419   0.008836   1.005186   x
            x  O           18         0.854421   0.508833   1.005195   x
            x  O           19         0.645581   0.008836   0.494814   x
            x  O           20         0.145579   0.508833   0.494805   x
            x  O           21         0.645581   0.991164  -0.005186   x
            x  O           22         0.145579   0.491167  -0.005195   x
            x  O           23         0.354419   0.991164   0.505186   x
            x  O           24         0.854421   0.491167   0.505195   x
            x  Na           1         0.000000   0.301358   0.250000   x
            x  Na           2         0.500000   0.801361   0.250000   x
            x  Na           3         0.000000   0.698642   0.750000   x
            x  Na           4         0.500000   0.198639   0.750000   x
            x  Al           1         0.000000   0.906897   0.250000   x
            x  Al           2         0.500000   0.406897   0.250000   x
            x  Al           3         0.000000   0.093103   0.750000   x
            x  Al           4         0.500000   0.593103   0.750000   x
            x  Si           1         0.290376   0.093834   0.227927   x
            x  Si           2         0.790377   0.593834   0.227933   x
            x  Si           3         0.709624   0.093834   0.272073   x
            x  Si           4         0.209623   0.593834   0.272067   x
            x  Si           5         0.709624   0.906166   0.772073   x
            x  Si           6         0.209623   0.406166   0.772067   x
            x  Si           7         0.290376   0.906166   0.727927   x
            x  Si           8         0.790377   0.406166   0.727933   x
            xxxxxxxxxxxxxxxxxxxxxxxxxxxxxxxxxxxxxxxxxxxxxxxxxxxxxxxxxxxx
 
 
------------------------------------------------------------------------ <-- SCF
SCF loop      Energy                           Energy gain       Timer   <-- SCF
                                               per atom          (sec)   <-- SCF
------------------------------------------------------------------------ <-- SCF
Initial  -1.68459367E+004                                        465.67  <-- SCF
      1  -1.68459408E+004                    1.01872486E-004     477.71  <-- SCF
      2  -1.68459408E+004                    4.77078184E-008     488.72  <-- SCF
      3  -1.68459408E+004                    4.76874781E-010     502.00  <-- SCF
      4  -1.68459408E+004                    9.28072880E-012     515.72  <-- SCF
------------------------------------------------------------------------ <-- SCF
 
Final energy =  -16845.94079592     eV
(energy not corrected for finite basis set)
 
 
 *********************************** Forces ***********************************
 *                                                                            *
 *                        Cartesian components (eV/A)                         *
 * -------------------------------------------------------------------------- *
 *                   x                    y                    z              *
 *                                                                            *
 * O         1      0.03066              0.03414              0.01027         *
 * O         2      0.03071              0.03421              0.01028         *
 * O         3     -0.03066              0.03414             -0.01027         *
 * O         4     -0.03071              0.03421             -0.01028         *
 * O         5     -0.03066             -0.03414             -0.01027         *
 * O         6     -0.03071             -0.03421             -0.01028         *
 * O         7      0.03066             -0.03414              0.01027         *
 * O         8      0.03071             -0.03421              0.01028         *
 * O         9     -0.02686              0.03376              0.01974         *
 * O        10     -0.02684              0.03377              0.01977         *
 * O        11      0.02686              0.03376             -0.01974         *
 * O        12      0.02684              0.03377             -0.01977         *
 * O        13      0.02686             -0.03376             -0.01974         *
 * O        14      0.02684             -0.03377             -0.01977         *
 * O        15     -0.02686             -0.03376              0.01974         *
 * O        16     -0.02684             -0.03377              0.01977         *
 * O        17     -0.04775              0.02351              0.00635         *
 * O        18     -0.04789              0.02354              0.00630         *
 * O        19      0.04775              0.02351             -0.00635         *
 * O        20      0.04789              0.02354             -0.00630         *
 * O        21      0.04775             -0.02351             -0.00635         *
 * O        22      0.04789             -0.02354             -0.00630         *
 * O        23     -0.04775             -0.02351              0.00635         *
 * O        24     -0.04789             -0.02354              0.00630         *
 * Na        1      0.00000              0.03136              0.00000         *
 * Na        2      0.00000              0.03128              0.00000         *
 * Na        3      0.00000             -0.03136              0.00000         *
 * Na        4      0.00000             -0.03128              0.00000         *
 * Al        1      0.00000              0.01717              0.00000         *
 * Al        2      0.00000              0.01712              0.00000         *
 * Al        3      0.00000             -0.01717              0.00000         *
 * Al        4      0.00000             -0.01712              0.00000         *
 * Si        1      0.03683             -0.05514             -0.00040         *
 * Si        2      0.03677             -0.05523             -0.00044         *
 * Si        3     -0.03683             -0.05514              0.00040         *
 * Si        4     -0.03677             -0.05523              0.00044         *
 * Si        5     -0.03683              0.05514              0.00040         *
 * Si        6     -0.03677              0.05523              0.00044         *
 * Si        7      0.03683              0.05514             -0.00040         *
 * Si        8      0.03677              0.05523             -0.00044         *
 *                                                                            *
 ******************************************************************************
  
 +------------+-------------+-------------+-----------------+ <-- min BFGS
 |    Step    |   lambda    |   F.delta   |    enthalpy     | <-- min BFGS
 +------------+-------------+-------------+-----------------+ <-- min BFGS
 |  previous  |    0.000000 |    0.000054 |   -16835.294375 | <-- min BFGS
 | trial step |    1.000000 |    0.000023 |   -16835.295422 | <-- min BFGS
 |  line step |    1.759848 |    0.000000 |   -16835.295661 | <-- min BFGS
 +------------+-------------+-------------+-----------------+ <-- min BFGS
  
 BFGS: finished iteration     3 with enthalpy= -1.68352957E+004 eV
  
 +-----------+-----------------+-----------------+------------+-----+ <-- BFGS
 | Parameter |      value      |    tolerance    |    units   | OK? | <-- BFGS
 +-----------+-----------------+-----------------+------------+-----+ <-- BFGS
 |  dE/ion   |   3.215451E-005 |   2.000000E-007 |         eV | No  | <-- BFGS
 |  |F|max   |   6.635253E-002 |   1.000000E-003 |       eV/A | No  | <-- BFGS
 |  |dR|max  |   2.021926E-003 |   1.000000E-003 |          A | No  | <-- BFGS
 +-----------+-----------------+-----------------+------------+-----+ <-- BFGS
  

================================================================================
 Starting BFGS iteration          4 ...
================================================================================
 
[...]
            x  O           20         0.145871   0.509885   0.495720   x
            x  O           21         0.645871   0.990115  -0.004280   x
            x  O           22         0.145871   0.490115  -0.004280   x
            x  O           23         0.354129   0.990115   0.504280   x
            x  O           24         0.854129   0.490115   0.504280   x
            x  Na           1         0.000000   0.302357   0.250000   x
            x  Na           2         0.500000   0.802357   0.250000   x
            x  Na           3         0.000000   0.697643   0.750000   x
            x  Na           4         0.500000   0.197643   0.750000   x
            x  Al           1         0.000000   0.907010   0.250000   x
            x  Al           2         0.500000   0.407010   0.250000   x
            x  Al           3         0.000000   0.092990   0.750000   x
            x  Al           4         0.500000   0.592990   0.750000   x
            x  Si           1         0.290468   0.093893   0.228257   x
            x  Si           2         0.790468   0.593893   0.228257   x
            x  Si           3         0.709532   0.093893   0.271743   x
            x  Si           4         0.209532   0.593893   0.271743   x
            x  Si           5         0.709532   0.906107   0.771743   x
            x  Si           6         0.209532   0.406107   0.771743   x
            x  Si           7         0.290468   0.906107   0.728257   x
            x  Si           8         0.790468   0.406107   0.728257   x
            xxxxxxxxxxxxxxxxxxxxxxxxxxxxxxxxxxxxxxxxxxxxxxxxxxxxxxxxxxxx
 
 
 BFGS: Final Enthalpy     = -1.68352990E+004 eV
 BFGS: Final <frequency>  =     982.47424 cm-1
 
 ***************************** Symmetrised Forces *****************************
 *                                                                            *
 *                        Cartesian components (eV/A)                         *
 * -------------------------------------------------------------------------- *
 *                   x                    y                    z              *
 *                                                                            *
 * O         1     -0.00007              0.00042              0.00028         *
 * O         2     -0.00024              0.00044              0.00028         *
 * O         3      0.00007              0.00042             -0.00028         *
 * O         4      0.00024              0.00044             -0.00028         *
 * O         5      0.00007             -0.00042             -0.00028         *
 * O         6      0.00024             -0.00044             -0.00028         *
 * O         7     -0.00007             -0.00042              0.00028         *
 * O         8     -0.00024             -0.00044              0.00028         *
 * O         9     -0.00004             -0.00016             -0.00042         *
 * O        10      0.00001              0.00006             -0.00042         *
 * O        11      0.00004             -0.00016              0.00042         *
 * O        12     -0.00001              0.00006              0.00042         *
 * O        13      0.00004              0.00016              0.00042         *
 * O        14     -0.00001             -0.00006              0.00042         *
 * O        15     -0.00004              0.00016             -0.00042         *
 * O        16      0.00001             -0.00006             -0.00042         *
 * O        17     -0.00009             -0.00012             -0.00030         *
 * O        18     -0.00022             -0.00012             -0.00028         *
 * O        19      0.00009             -0.00012              0.00030         *
 * O        20      0.00022             -0.00012              0.00028         *
 * O        21      0.00009              0.00012              0.00030         *
 * O        22      0.00022              0.00012              0.00028         *
 * O        23     -0.00009              0.00012             -0.00030         *
 * O        24     -0.00022              0.00012             -0.00028         *
 * Na        1      0.00000              0.00053              0.00000         *
 * Na        2      0.00000              0.00048              0.00000         *
 * Na        3      0.00000             -0.00053              0.00000         *
 * Na        4      0.00000             -0.00048              0.00000         *
 * Al        1      0.00000             -0.00021              0.00000         *
 * Al        2      0.00000             -0.00018              0.00000         *
 * Al        3      0.00000              0.00021              0.00000         *
 * Al        4      0.00000              0.00018              0.00000         *
 * Si        1     -0.00039              0.00020             -0.00038         *
 * Si        2     -0.00017             -0.00015             -0.00041         *
 * Si        3      0.00039              0.00020              0.00038         *
 * Si        4      0.00017             -0.00015              0.00041         *
 * Si        5      0.00039             -0.00020              0.00038         *
 * Si        6      0.00017              0.00015              0.00041         *
 * Si        7     -0.00039             -0.00020             -0.00038         *
 * Si        8     -0.00017              0.00015             -0.00041         *
 *                                                                            *
 ******************************************************************************
 
 *********** Symmetrised Stress Tensor ***********
 *                                               *
 *          Cartesian components (GPa)           *
 * --------------------------------------------- *
 *             x             y             z     *
 *                                               *
 *  x     -5.174764      0.000000     -0.165286  *
 *  y      0.000000     -7.088618      0.000000  *
 *  z     -0.165286      0.000000     -5.084127  *
 *                                               *
 *  Pressure:    5.7825                          *
 *                                               *
 *************************************************
 
 Pseudo atomic calculation performed for O 2s2 2p4
 
 Converged in 36 iterations to a total energy of -429.6485 eV
 
 
 Pseudo atomic calculation performed for Na 2s2 2p6 3s1
 
 Converged in 33 iterations to a total energy of -1302.8467 eV
 
 
 Pseudo atomic calculation performed for Al 3s2 3p1
 
 Converged in 20 iterations to a total energy of -52.7392 eV
 
 
 Pseudo atomic calculation performed for Si 3s2 3p2
 
 Converged in 21 iterations to a total energy of -101.9044 eV
 
Charge spilling parameter for spin component 1 = 0.85%
 
     Atomic Populations (Mulliken)
     -----------------------------
Species   Ion     s      p      d      f     Total  Charge (e)
==============================================================
  O        1     1.84   5.24   0.00   0.00   7.08    -1.08
  O        2     1.84   5.24   0.00   0.00   7.08    -1.08
  O        3     1.84   5.24   0.00   0.00   7.08    -1.08
  O        4     1.84   5.24   0.00   0.00   7.08    -1.08
  O        5     1.84   5.24   0.00   0.00   7.08    -1.08
  O        6     1.84   5.24   0.00   0.00   7.08    -1.08
  O        7     1.84   5.24   0.00   0.00   7.08    -1.08
  O        8     1.84   5.24   0.00   0.00   7.08    -1.08
  O        9     1.84   5.29   0.00   0.00   7.12    -1.12
  O       10     1.84   5.29   0.00   0.00   7.12    -1.12
  O       11     1.84   5.29   0.00   0.00   7.12    -1.12
  O       12     1.84   5.29   0.00   0.00   7.12    -1.12
  O       13     1.84   5.29   0.00   0.00   7.12    -1.12
  O       14     1.84   5.29   0.00   0.00   7.12    -1.12
  O       15     1.84   5.29   0.00   0.00   7.12    -1.12
  O       16     1.84   5.29   0.00   0.00   7.12    -1.12
  O       17     1.83   5.30   0.00   0.00   7.12    -1.12
  O       18     1.83   5.30   0.00   0.00   7.12    -1.12
  O       19     1.83   5.30   0.00   0.00   7.12    -1.12
  O       20     1.83   5.30   0.00   0.00   7.12    -1.12
  O       21     1.83   5.30   0.00   0.00   7.12    -1.12
  O       22     1.83   5.30   0.00   0.00   7.12    -1.12
  O       23     1.83   5.30   0.00   0.00   7.12    -1.12
  O       24     1.83   5.30   0.00   0.00   7.12    -1.12
  Na       1     2.04   5.77   0.00   0.00   7.81     1.19
  Na       2     2.04   5.77   0.00   0.00   7.81     1.19
  Na       3     2.04   5.77   0.00   0.00   7.81     1.19
  Na       4     2.04   5.77   0.00   0.00   7.81     1.19
  Al       1     0.51   0.92   0.00   0.00   1.42     1.58
  Al       2     0.51   0.92   0.00   0.00   1.42     1.58
  Al       3     0.51   0.92   0.00   0.00   1.42     1.58
  Al       4     0.51   0.92   0.00   0.00   1.42     1.58
  Si       1     0.69   1.36   0.00   0.00   2.05     1.95
  Si       2     0.69   1.36   0.00   0.00   2.05     1.95
  Si       3     0.69   1.36   0.00   0.00   2.05     1.95
  Si       4     0.69   1.36   0.00   0.00   2.05     1.95
  Si       5     0.69   1.36   0.00   0.00   2.05     1.95
  Si       6     0.69   1.36   0.00   0.00   2.05     1.95
  Si       7     0.69   1.36   0.00   0.00   2.05     1.95
  Si       8     0.69   1.36   0.00   0.00   2.05     1.95
==============================================================
 
     Bond                     Population      Length (A)
============================================================
   O 016 --   Si 008               0.76        1.58951
   O 010 --   Si 002               0.76        1.58951
   O 014 --   Si 006               0.76        1.58951
   O 012 --   Si 004               0.76        1.58951
   O 009 --   Si 001               0.76        1.58951
   O 011 --   Si 003               0.76        1.58951
   O 015 --   Si 007               0.76        1.58951
   O 013 --   Si 005               0.76        1.58951
   O 023 --   Si 007               0.56        1.62865
   O 017 --   Si 001               0.56        1.62865
   O 021 --   Si 005               0.56        1.62865
   O 019 --   Si 003               0.56        1.62865
   O 020 --   Si 004               0.56        1.62866
   O 022 --   Si 006               0.56        1.62866
   O 024 --   Si 008               0.56        1.62866
   O 018 --   Si 002               0.56        1.62866
   O 008 --   Si 008               0.60        1.63424
   O 002 --   Si 002               0.60        1.63424
   O 006 --   Si 006               0.60        1.63424
   O 004 --   Si 004               0.60        1.63424
   O 005 --   Si 005               0.60        1.63424
   O 003 --   Si 003               0.60        1.63424
   O 007 --   Si 007               0.60        1.63424
   O 001 --   Si 001               0.60        1.63424
   O 019 --   Si 005               0.58        1.63927
   O 017 --   Si 007               0.58        1.63927
   O 023 --   Si 001               0.58        1.63927
   O 021 --   Si 003               0.58        1.63927
   O 018 --   Si 008               0.58        1.63927
   O 024 --   Si 002               0.58        1.63927
   O 020 --   Si 006               0.58        1.63927
   O 022 --   Si 004               0.58        1.63927
   O 013 --   Al 004               0.43        1.84671
   O 011 --   Al 002               0.43        1.84671
   O 015 --   Al 004               0.43        1.84671
   O 009 --   Al 002               0.43        1.84671
   O 012 --   Al 001               0.43        1.84671
   O 014 --   Al 003               0.43        1.84671
   O 010 --   Al 001               0.43        1.84671
   O 016 --   Al 003               0.43        1.84671
   O 003 --   Al 003               0.32        1.94304
   O 001 --   Al 003               0.32        1.94304
   O 007 --   Al 001               0.32        1.94304
   O 005 --   Al 001               0.32        1.94304
   O 004 --   Al 004               0.32        1.94305
   O 002 --   Al 004               0.32        1.94305
   O 008 --   Al 002               0.32        1.94305
   O 006 --   Al 002               0.32        1.94305
   O 007 --   Al 003               0.32        1.98211
   O 005 --   Al 003               0.32        1.98211
   O 001 --   Al 001               0.32        1.98211
   O 003 --   Al 001               0.32        1.98211
   O 006 --   Al 004               0.32        1.98211
   O 002 --   Al 002               0.32        1.98211
   O 008 --   Al 004               0.32        1.98211
   O 004 --   Al 002               0.32        1.98211
   O 001 --   Na 001              -0.02        2.33362
   O 003 --   Na 001              -0.02        2.33362
   O 007 --   Na 003              -0.02        2.33362
   O 005 --   Na 003              -0.02        2.33362
   O 008 --   Na 004              -0.02        2.33362
   O 006 --   Na 004              -0.02        2.33362
   O 004 --   Na 002              -0.02        2.33362
   O 002 --   Na 002              -0.02        2.33362
   O 024 --   Na 003              -0.04        2.35710
   O 022 --   Na 003              -0.04        2.35710
   O 020 --   Na 001              -0.04        2.35710
   O 018 --   Na 001              -0.04        2.35710
   O 021 --   Na 004              -0.04        2.35710
   O 019 --   Na 002              -0.04        2.35710
   O 017 --   Na 002              -0.04        2.35710
   O 023 --   Na 004              -0.04        2.35710
   O 010 --   Na 003              -0.05        2.40067
   O 014 --   Na 001              -0.05        2.40067
   O 012 --   Na 003              -0.05        2.40067
   O 016 --   Na 001              -0.05        2.40067
   O 009 --   Na 004              -0.05        2.40067
   O 013 --   Na 002              -0.05        2.40067
   O 011 --   Na 004              -0.05        2.40067
   O 015 --   Na 002              -0.05        2.40067
   O 003 --    O 007              -0.10        2.47402
   O 001 --    O 005              -0.10        2.47402
   O 004 --    O 008              -0.10        2.47402
   O 002 --    O 006              -0.10        2.47402
   O 016 --    O 018              -0.10        2.57428
   O 010 --    O 024              -0.10        2.57428
   O 014 --    O 020              -0.10        2.57428
   O 012 --    O 022              -0.10        2.57428
   O 009 --    O 023              -0.10        2.57428
   O 011 --    O 021              -0.10        2.57428
   O 013 --    O 019              -0.10        2.57428
   O 015 --    O 017              -0.10        2.57428
   O 018 --    O 024              -0.16        2.61531
   O 020 --    O 022              -0.16        2.61531
   O 019 --    O 021              -0.16        2.61531
   O 017 --    O 023              -0.16        2.61531
   O 014 --    O 022              -0.09        2.63644
   O 012 --    O 020              -0.09        2.63644
   O 016 --    O 024              -0.09        2.63644
   O 010 --    O 018              -0.09        2.63644
   O 015 --    O 023              -0.09        2.63644
   O 009 --    O 017              -0.09        2.63644
   O 013 --    O 021              -0.09        2.63644
   O 011 --    O 019              -0.09        2.63644
   O 007 --    O 017              -0.08        2.64332
   O 005 --    O 019              -0.08        2.64332
   O 001 --    O 023              -0.08        2.64332
   O 003 --    O 021              -0.08        2.64332
   O 008 --    O 018              -0.08        2.64332
   O 006 --    O 020              -0.08        2.64332
   O 002 --    O 024              -0.08        2.64332
   O 004 --    O 022              -0.08        2.64332
   O 001 --    O 017              -0.08        2.64347
   O 007 --    O 023              -0.08        2.64347
   O 003 --    O 019              -0.08        2.64347
   O 005 --    O 021              -0.08        2.64347
   O 004 --    O 020              -0.08        2.64347
   O 008 --    O 024              -0.08        2.64347
   O 002 --    O 018              -0.08        2.64347
   O 006 --    O 022              -0.08        2.64347
   O 008 --    O 013              -0.06        2.67573
   O 006 --    O 015              -0.06        2.67573
   O 004 --    O 009              -0.06        2.67573
   O 002 --    O 011              -0.06        2.67573
   O 007 --    O 014              -0.06        2.67573
   O 005 --    O 016              -0.06        2.67573
   O 003 --    O 010              -0.06        2.67573
   O 001 --    O 012              -0.06        2.67573
   O 002 --    O 013              -0.08        2.68115
   O 004 --    O 015              -0.08        2.68115
   O 008 --    O 011              -0.08        2.68115
   O 006 --    O 009              -0.08        2.68115
   O 003 --    O 016              -0.08        2.68115
   O 001 --    O 014              -0.08        2.68115
   O 007 --    O 012              -0.08        2.68115
   O 005 --    O 010              -0.08        2.68115
   O 018 --   Na 003              -0.02        2.69580
   O 020 --   Na 003              -0.02        2.69580
   O 024 --   Na 001              -0.02        2.69580
   O 022 --   Na 001              -0.02        2.69580
   O 021 --   Na 002              -0.02        2.69580
   O 019 --   Na 004              -0.02        2.69580
   O 023 --   Na 002              -0.02        2.69580
   O 017 --   Na 004              -0.02        2.69580
   O 005 --    O 007              -0.05        2.71219
   O 001 --    O 003              -0.05        2.71219
   O 006 --    O 008              -0.05        2.71219
   O 002 --    O 004              -0.05        2.71219
   O 020 --    O 024              -0.04        2.76596
   O 018 --    O 022              -0.04        2.76596
   O 017 --    O 021              -0.04        2.76597
   O 019 --    O 023              -0.04        2.76597
   O 008 --    O 016              -0.06        2.76633
   O 002 --    O 010              -0.06        2.76633
   O 006 --    O 014              -0.06        2.76633
   O 004 --    O 012              -0.06        2.76633
   O 001 --    O 009              -0.06        2.76633
   O 007 --    O 015              -0.06        2.76633
   O 003 --    O 011              -0.06        2.76633
   O 005 --    O 013              -0.06        2.76633
   O 003 --    O 014              -0.04        2.79225
   O 005 --    O 012              -0.04        2.79225
   O 001 --    O 016              -0.04        2.79225
   O 007 --    O 010              -0.04        2.79225
   O 004 --    O 013              -0.04        2.79225
   O 006 --    O 011              -0.04        2.79225
   O 008 --    O 009              -0.04        2.79225
   O 002 --    O 015              -0.04        2.79225
   O 013 --    O 015              -0.05        2.80727
   O 009 --    O 011              -0.05        2.80727
   O 014 --    O 016              -0.05        2.80727
   O 010 --    O 012              -0.05        2.80727
   O 016 --    O 019              -0.03        2.87879
   O 014 --    O 017              -0.03        2.87879
   O 012 --    O 023              -0.03        2.87879
   O 010 --    O 021              -0.03        2.87879
   O 015 --    O 020              -0.03        2.87879
   O 013 --    O 018              -0.03        2.87879
   O 009 --    O 022              -0.03        2.87879
   O 011 --    O 024              -0.03        2.87879
   O 004 --    O 006              -0.06        2.92377
   O 002 --    O 008              -0.06        2.92377
   O 003 --    O 005              -0.06        2.92377
   O 001 --    O 007              -0.06        2.92377
============================================================
 
 
Writing model to jadeite_4_30_GPa_cij__3__6.check
 
Writing analysis data to jadeite_4_30_GPa_cij__3__6.castep_bin
Initialisation time =      1.90 s
Calculation time    =   1729.11 s
Finalisation time   =      0.73 s
Total time          =   1731.74 s
Peak Memory Use     = 217472 kB
