 +-------------------------------------------------+
 |                                                 |
 |      CCC   AA    SSS  TTTTT  EEEEE  PPPP        |
 |     C     A  A  S       T    E      P   P       |
 |     C     AAAA   SS     T    EEE    PPPP        |
 |     C     A  A     S    T    E      P           |
 |      CCC  A  A  SSS     T    EEEEE  P           |
 |                                                 |
 +-------------------------------------------------+
 |                                                 |
 | Welcome to Academic Release CASTEP version 5.02 |
 | Ab Initio Total Energy Program                  |
 |                                                 |
 | Authors:                                        |
 | M. Segall, M. Probert, C. Pickard, P. Hasnip,   |
 | S. Clark, K. Refson, M. Payne                   |
 |                                                 |
 | Contributors:                                   |
 | P. Lindan, P. Haynes, J. White, V. Milman,      |
 | N. Govind, M. Gibson, P. Tulip, V. Cocula,      |
 | B. Montanari, D. Quigley, M. Glover,            |
 | L. Bernasconi, A. Perlov, M. Plummer            |
 |                                                 |
 | Copyright (c) 2000 - 2009                       |
 |                                                 |
 |     Distributed under the terms of an           |
 |     Agreement between the United Kingdom        |
 |     Car-Parrinello (UKCP) Consortium,           |
 |     Daresbury Laboratory and Accelrys, Inc.     |
 |                                                 |
 | Please cite                                     |
 |                                                 |
 |     "First principles methods using CASTEP"     |
 |                                                 |
 |         Zeitschrift fuer Kristallographie       |
 |           220(5-6) pp. 567-570 (2005)           |
 |                                                 |
 | S. J. Clark, M. D. Segall, C. J. Pickard,       |
 | P. J. Hasnip, M. J. Probert, K. Refson,         |
 | M. C. Payne                                     |
 |                                                 |
 |       in all publications arising from          |
 |              your use of CASTEP                 |
 |                                                 |
 +-------------------------------------------------+
 
 
 Pseudo atomic calculation performed for O 2s2 2p4
 
 Converged in 36 iterations to a total energy of -429.6485 eV
 
 
 Pseudo atomic calculation performed for Na 2s2 2p6 3s1
 
 Converged in 33 iterations to a total energy of -1302.8467 eV
 
 
 Pseudo atomic calculation performed for Al 3s2 3p1
 
 Converged in 20 iterations to a total energy of -52.7392 eV
 
 
 Pseudo atomic calculation performed for Si 3s2 3p2
 
 Converged in 21 iterations to a total energy of -101.9044 eV
 
Calculation parallelised over   36 nodes.
K-points are distributed over    6 groups, each containing    6 nodes.

 ************************************ Title ************************************
 

 ***************************** General Parameters ******************************
  
 output verbosity                               : normal  (1)
 write checkpoint data to                       : jadeite_4_30_GPa_cij__2__4.check
 type of calculation                            : geometry optimization
 stress calculation                             : on
 density difference calculation                 : off
 electron localisation func (ELF) calculation   : off
 Hirshfeld analysis                             : off
 unlimited duration calculation
 timing information                             : on
 memory usage estimate                          : on
 write final potential to formatted file        : off
 write final density to formatted file          : off
  
 output         length unit                     : A
 output           mass unit                     : amu
 output           time unit                     : ps
 output         charge unit                     : e
 output         energy unit                     : eV
 output          force unit                     : eV/A
 output       velocity unit                     : A/ps
 output       pressure unit                     : GPa
 output     inv_length unit                     : 1/A
 output      frequency unit                     : cm-1
 output force constant unit                     : eV/A**2
 output         volume unit                     : A**3
 output   IR intensity unit                     : (D/A)**2/amu
 output         dipole unit                     : D
 output         efield unit                     : eV/A/e
  
 wavefunctions paging                           : none
 data distribution                              : optimal for this architecture
 optimization strategy                          : maximize speed(+++)

 *********************** Exchange-Correlation Parameters ***********************
  
 using functional                               : Perdew Burke Ernzerhof
 Divergence correction                          : off
 DFT+D: Semi-empirical dispersion correction    : off

 ************************* Pseudopotential Parameters **************************
  
 pseudopotential representation                 : reciprocal space
 <beta|phi> representation                      : reciprocal space

 **************************** Basis Set Parameters *****************************
  
 plane wave basis set cut-off                   :   700.0000   eV
 finite basis set correction                    : none

 **************************** Electronic Parameters ****************************
  
 number of  electrons                           :  224.0    
 net charge of system                           :  0.000    
 net spin   of system                           :  0.000    
 number of  up  spins                           :  112.0    
 number of down spins                           :  112.0    
 treating system as non-spin-polarized
 number of bands                                :        112

 ********************* Electronic Minimization Parameters **********************
  
 Method: Treating system as non-metallic,
         and number of  SD  steps               :          1
         and number of  CG  steps               :          4
  
 total energy / atom convergence tol.           : 0.1000E-07   eV
 max force / atom convergence tol.              : ignored
 convergence tolerance window                   :          3   cycles
 max. number of SCF cycles                      :        100

 *********************** Population Analysis Parameters ************************
  
 Population analysis with cutoff                :  3.000       A

 ********************** Geometry Optimization Parameters ***********************
  
 optimization method                            : BFGS
 variable cell method                           : fixed basis quality
 max. number of steps                           :        300
 estimated bulk modulus                         :  500.0       GPa
 estimated <frequency>                          :  1668.       cm-1
 line minimiser tolerance                       :     0.4000
 total energy convergence tolerance             : 0.2000E-06   eV/atom
        max ionic |force| tolerance             : 0.1000E-02   eV/A
 max ionic |displacement| tolerance             : 0.1000E-02   A
   max |stress component| tolerance             : 0.1000E-02   GPa
 convergence tolerance window                   :          2   steps
 backup results every                           :          1   steps

 *******************************************************************************
  
 
                           -------------------------------
                                      Unit Cell
                           -------------------------------
        Real Lattice(A)                      Reciprocal Lattice(1/A)
   8.9813393  -0.0666667  -2.8290832        0.6995822   0.0000000   0.0000000
   0.0000000   8.5603493   0.0000000        0.0054482   0.7339870   0.0000000
   0.0000000   0.0000000   5.1532512        0.3840636   0.0000000   1.2192663
 
                       Lattice parameters(A)       Cell Angles
                    a =    9.416614          alpha =   90.000000
                    b =    8.560349          beta  =  107.483751
                    c =    5.153251          gamma =   90.405640
 
                       Current cell volume =  396.199483       A**3
 
                           -------------------------------
                                     Cell Contents
                           -------------------------------
                         Total number of ions in cell =   40
                      Total number of species in cell =    4
                        Max number of any one species =   24
 
            xxxxxxxxxxxxxxxxxxxxxxxxxxxxxxxxxxxxxxxxxxxxxxxxxxxxxxxxxxxx
            x  Element    Atom        Fractional coordinates of atoms  x
            x            Number           u          v          w      x
            x----------------------------------------------------------x
            x  O            1         0.109277   0.076953   0.129205   x
            x  O            2         0.609279   0.576952   0.129208   x
            x  O            3         0.890723   0.076953   0.370795   x
            x  O            4         0.390721   0.576952   0.370792   x
            x  O            5         0.890723   0.923047   0.870795   x
            x  O            6         0.390721   0.423048   0.870792   x
            x  O            7         0.109277   0.923047   0.629205   x
            x  O            8         0.609279   0.423048   0.629208   x
            x  O            9         0.361047   0.263746   0.295383   x
            x  O           10         0.861046   0.763747   0.295382   x
            x  O           11         0.638953   0.263746   0.204617   x
            x  O           12         0.138954   0.763747   0.204618   x
            x  O           13         0.638953   0.736254   0.704617   x
            x  O           14         0.138954   0.236253   0.704618   x
            x  O           15         0.361047   0.736254   0.795383   x
            x  O           16         0.861046   0.236253   0.795382   x
            x  O           17         0.354029   0.008469   1.005059   x
            x  O           18         0.854032   0.508466   1.005069   x
            x  O           19         0.645971   0.008469   0.494941   x
            x  O           20         0.145968   0.508466   0.494931   x
            x  O           21         0.645971   0.991530  -0.005059   x
            x  O           22         0.145968   0.491534  -0.005069   x
            x  O           23         0.354029   0.991530   0.505059   x
            x  O           24         0.854032   0.491534   0.505069   x
            x  Na           1         0.000000   0.301230   0.250000   x
            x  Na           2         0.500000   0.801235   0.250000   x
            x  Na           3         0.000000   0.698770   0.750000   x
            x  Na           4         0.500000   0.198765   0.750000   x
            x  Al           1         0.000000   0.906276   0.250000   x
            x  Al           2         0.500000   0.406277   0.250000   x
            x  Al           3         0.000000   0.093724   0.750000   x
            x  Al           4         0.500000   0.593723   0.750000   x
            x  Si           1         0.290869   0.093825   0.228100   x
            x  Si           2         0.790871   0.593824   0.228106   x
            x  Si           3         0.709131   0.093825   0.271900   x
            x  Si           4         0.209129   0.593824   0.271894   x
            x  Si           5         0.709131   0.906176   0.771900   x
            x  Si           6         0.209129   0.406176   0.771894   x
            x  Si           7         0.290869   0.906176   0.728100   x
            x  Si           8         0.790871   0.406176   0.728106   x
            xxxxxxxxxxxxxxxxxxxxxxxxxxxxxxxxxxxxxxxxxxxxxxxxxxxxxxxxxxxx
 
 
                         No user defined ionic velocities
 
                           -------------------------------
                                   Details of Species
                           -------------------------------
 
                               Mass of species in AMU
                                    O   15.9994000
                                    Na   22.9897700
                                    Al   26.9815400
                                    Si   28.0855000
 
                          Electric Quadrupole Moment (Barn)
                                    O   -0.0255800 Isotope 17
                                    Na    0.1040000 Isotope 23
                                    Al    0.1466000 Isotope 27
                                    Si    1.0000000 No Isotope Defined
 
                          Files used for pseudopotentials:
                                    O O_00PBE.usp
                                    Na Na_00PBE.usp
                                    Al Al_00PBE.usp
                                    Si Si_00PBE.usp
 
                           -------------------------------
                              k-Points For BZ Sampling
                           -------------------------------
                       MP grid size for SCF calculation is  2  2  3
                         Number of kpoints used = 6
 
             +++++++++++++++++++++++++++++++++++++++++++++++++++++++
             +  Number       Fractional coordinates        Weight  +
             +-----------------------------------------------------+
             +     1  -0.250000   0.250000   0.333333   0.1666667  +
             +     2  -0.250000   0.250000   0.000000   0.1666667  +
             +     3   0.250000  -0.250000   0.333333   0.1666667  +
             +     4  -0.250000  -0.250000   0.333333   0.1666667  +
             +     5   0.250000   0.250000   0.000000   0.1666667  +
             +     6   0.250000   0.250000   0.333333   0.1666667  +
             +++++++++++++++++++++++++++++++++++++++++++++++++++++++
 
                           -------------------------------
                               Symmetry and Constraints
                           -------------------------------
 
                      Number of symmetry operations   = 2
                      Number of ionic constraints     = 3
                      Maximum deviation from symmetry = 0.997129E-15     ANG
               Point group of crystal =     2: Ci, -1, -1
           Set iprint > 1 for details on symmetry rotations/translations
 
                          Centre of mass is constrained
             Set iprint > 1 for details of linear ionic constraints
 
                         Number of cell constraints= 6
                         Cell constraints are:  0 0 0 0 0 0
 
                         External pressure/stress (GPa)
                          4.30000   0.00000   0.00000
                                    4.30000   0.00000
                                              4.30000
  
+---------------- MEMORY AND SCRATCH DISK ESTIMATES PER NODE -----------------+
|                                                     Memory          Disk    |
| Model and support data                               91.2 MB         0.0 MB |
| Electronic energy minimisation requirements          32.1 MB         0.0 MB |
|                                               ----------------------------- |
| Approx. total storage required per node             123.3 MB         0.0 MB |
|                                                                             |
| Requirements will fluctuate during execution and may exceed these estimates |
+-----------------------------------------------------------------------------+
------------------------------------------------------------------------ <-- SCF
SCF loop      Energy                           Energy gain       Timer   <-- SCF
                                               per atom          (sec)   <-- SCF
------------------------------------------------------------------------ <-- SCF
Initial  -1.72404597E+003                                          9.97  <-- SCF
      1  -1.65129649E+004                    3.69722974E+002      28.89  <-- SCF
      2  -1.68145234E+004                    7.53896180E+000      47.94  <-- SCF
      3  -1.68427212E+004                    7.04946472E-001      66.26  <-- SCF
      4  -1.68457995E+004                    7.69567511E-002      84.28  <-- SCF
      5  -1.68458830E+004                    2.08762607E-003     102.34  <-- SCF
      6  -1.68458838E+004                    1.84079652E-005     120.40  <-- SCF
      7  -1.68458838E+004                    4.02862593E-007     138.25  <-- SCF
      8  -1.68458838E+004                    1.15896194E-008     156.37  <-- SCF
      9  -1.68458838E+004                    3.58081453E-010     175.27  <-- SCF
     10  -1.68458838E+004                    1.18329292E-011     197.17  <-- SCF
------------------------------------------------------------------------ <-- SCF
 
Final energy =  -16845.88377621     eV
(energy not corrected for finite basis set)
 
 
Writing model to jadeite_4_30_GPa_cij__2__4.check
 
+---------------- MEMORY AND SCRATCH DISK ESTIMATES PER NODE -----------------+
|                                                     Memory          Disk    |
| Model and support data                               84.3 MB         0.0 MB |
| Geometry minimisation requirements                   37.3 MB         0.0 MB |
|                                               ----------------------------- |
| Approx. total storage required per node             121.6 MB         0.0 MB |
|                                                                             |
| Requirements will fluctuate during execution and may exceed these estimates |
+-----------------------------------------------------------------------------+
 
 
 *********************************** Forces ***********************************
 *                                                                            *
 *                        Cartesian components (eV/A)                         *
 * -------------------------------------------------------------------------- *
 *                   x                    y                    z              *
 *                                                                            *
 * O         1      0.06300              0.00335              0.07627         *
 * O         2      0.06284              0.00340              0.07622         *
 * O         3     -0.04374              0.00285             -0.05092         *
 * O         4     -0.04358              0.00291             -0.05087         *
 * O         5     -0.06300             -0.00335             -0.07627         *
 * O         6     -0.06284             -0.00340             -0.07622         *
 * O         7      0.04374             -0.00285              0.05092         *
 * O         8      0.04358             -0.00291              0.05087         *
 * O         9     -0.00789              0.07977              0.05962         *
 * O        10     -0.00777              0.07984              0.05962         *
 * O        11      0.06994             -0.09573             -0.03223         *
 * O        12      0.06981             -0.09566             -0.03223         *
 * O        13      0.00789             -0.07977             -0.05962         *
 * O        14      0.00777             -0.07984             -0.05962         *
 * O        15     -0.06994              0.09573              0.03223         *
 * O        16     -0.06981              0.09566              0.03223         *
 * O        17      0.19559              0.10846              0.08247         *
 * O        18      0.19554              0.10853              0.08246         *
 * O        19     -0.18749             -0.02975              0.09881         *
 * O        20     -0.18744             -0.02967              0.09882         *
 * O        21     -0.19559             -0.10846             -0.08247         *
 * O        22     -0.19554             -0.10853             -0.08246         *
 * O        23      0.18749              0.02975             -0.09881         *
 * O        24      0.18744              0.02967             -0.09882         *
 * Na        1     -0.01260              0.00486             -0.01639         *
 * Na        2     -0.01260              0.00474             -0.01638         *
 * Na        3      0.01260             -0.00486              0.01639         *
 * Na        4      0.01260             -0.00474              0.01638         *
 * Al        1      0.04716             -0.02061             -0.00262         *
 * Al        2      0.04716             -0.02051             -0.00262         *
 * Al        3     -0.04716              0.02061              0.00262         *
 * Al        4     -0.04716              0.02051              0.00262         *
 * Si        1     -0.19049              0.14826             -0.02326         *
 * Si        2     -0.19071              0.14830             -0.02329         *
 * Si        3      0.21476              0.47538              0.00638         *
 * Si        4      0.21499              0.47542              0.00642         *
 * Si        5      0.19049             -0.14826              0.02326         *
 * Si        6      0.19071             -0.14830              0.02329         *
 * Si        7     -0.21476             -0.47538             -0.00638         *
 * Si        8     -0.21499             -0.47542             -0.00642         *
 *                                                                            *
 ******************************************************************************
 BFGS: finished iteration     0 with enthalpy= -1.68352504E+004 eV
  
 +-----------+-----------------+-----------------+------------+-----+ <-- BFGS
 | Parameter |      value      |    tolerance    |    units   | OK? | <-- BFGS
 +-----------+-----------------+-----------------+------------+-----+ <-- BFGS
 |  dE/ion   |   0.000000E+000 |   2.000000E-007 |         eV | No  | <-- BFGS
 |  |F|max   |   5.218091E-001 |   1.000000E-003 |       eV/A | No  | <-- BFGS
 |  |dR|max  |   0.000000E+000 |   1.000000E-003 |          A | No  | <-- BFGS
 +-----------+-----------------+-----------------+------------+-----+ <-- BFGS
  

================================================================================
 Starting BFGS iteration          1 ...
================================================================================
 
Writing model to jadeite_4_30_GPa_cij__2__4.check
  
 +------------+-------------+-------------+-----------------+ <-- min BFGS
 |    Step    |   lambda    |   F.delta   |    enthalpy     | <-- min BFGS
 +------------+-------------+-------------+-----------------+ <-- min BFGS
 |  previous  |    0.000000 |    0.000338 |   -16835.250380 | <-- min BFGS
 +------------+-------------+-------------+-----------------+ <-- min BFGS
  

--------------------------------------------------------------------------------
 BFGS: starting iteration         1 with trial guess (lambda=  1.000000)
--------------------------------------------------------------------------------
 
                           -------------------------------
                                     Cell Contents
                           -------------------------------
 
            xxxxxxxxxxxxxxxxxxxxxxxxxxxxxxxxxxxxxxxxxxxxxxxxxxxxxxxxxxxx
            x  Element    Atom        Fractional coordinates of atoms  x
            x            Number           u          v          w      x
            x----------------------------------------------------------x
            x  O            1         0.109311   0.076955   0.129295   x
            x  O            2         0.609313   0.576954   0.129298   x
            x  O            3         0.890699   0.076954   0.370734   x
            x  O            4         0.390698   0.576953   0.370731   x
            x  O            5         0.890689   0.923045   0.870705   x
            x  O            6         0.390687   0.423046   0.870702   x
            x  O            7         0.109301   0.923046   0.629266   x
            x  O            8         0.609302   0.423047   0.629269   x
            x  O            9         0.361043   0.263792   0.295437   x
            x  O           10         0.861042   0.763792   0.295436   x
            x  O           11         0.638991   0.263693   0.204607   x
            x  O           12         0.138992   0.763693   0.204608   x
            x  O           13         0.638957   0.736208   0.704563   x
            x  O           14         0.138958   0.236208   0.704564   x
            x  O           15         0.361009   0.736307   0.795393   x
            x  O           16         0.861008   0.236307   0.795392   x
            x  O           17         0.354134   0.008532   1.005194   x
            x  O           18         0.854137   0.508528   1.005204   x
            x  O           19         0.645870   0.008452   0.494978   x
            x  O           20         0.145867   0.508448   0.494968   x
            x  O           21         0.645866   0.991468  -0.005194   x
            x  O           22         0.145863   0.491472  -0.005204   x
            x  O           23         0.354130   0.991548   0.505022   x
            x  O           24         0.854133   0.491552   0.505032   x
            x  Na           1        -0.000007   0.301233   0.249981   x
            x  Na           2         0.499993   0.801237   0.249981   x
            x  Na           3         0.000007   0.698767   0.750019   x
            x  Na           4         0.500007   0.198763   0.750019   x
            x  Al           1         0.000025   0.906265   0.250011   x
            x  Al           2         0.500025   0.406265   0.250011   x
            x  Al           3        -0.000025   0.093735   0.749989   x
            x  Al           4         0.499975   0.593735   0.749989   x
            x  Si           1         0.290766   0.093907   0.228022   x
            x  Si           2         0.790768   0.593906   0.228028   x
            x  Si           3         0.709247   0.094094   0.271969   x
            x  Si           4         0.209245   0.594093   0.271964   x
            x  Si           5         0.709234   0.906093   0.771978   x
            x  Si           6         0.209232   0.406094   0.771972   x
            x  Si           7         0.290753   0.905906   0.728031   x
            x  Si           8         0.790755   0.405907   0.728036   x
            xxxxxxxxxxxxxxxxxxxxxxxxxxxxxxxxxxxxxxxxxxxxxxxxxxxxxxxxxxxx
 
 
------------------------------------------------------------------------ <-- SCF
SCF loop      Energy                           Energy gain       Timer   <-- SCF
                                               per atom          (sec)   <-- SCF
------------------------------------------------------------------------ <-- SCF
Initial  -1.68458781E+004                                        207.46  <-- SCF
      1  -1.68458916E+004                    3.36797700E-004     225.63  <-- SCF
      2  -1.68458916E+004                    1.74761073E-007     243.73  <-- SCF
      3  -1.68458916E+004                    2.32281174E-009     261.86  <-- SCF
      4  -1.68458916E+004                    4.64036440E-011     280.74  <-- SCF
------------------------------------------------------------------------ <-- SCF
 
Final energy =  -16845.89160798     eV
(energy not corrected for finite basis set)
 
 
 *********************************** Forces ***********************************
 *                                                                            *
 *                        Cartesian components (eV/A)                         *
 * -------------------------------------------------------------------------- *
 *                   x                    y                    z              *
 *                                                                            *
 * O         1      0.02123             -0.00020              0.07105         *
 * O         2      0.02107             -0.00015              0.07100         *
 * O         3     -0.01560              0.00946             -0.04583         *
 * O         4     -0.01544              0.00952             -0.04578         *
 * O         5     -0.02123              0.00020             -0.07105         *
 * O         6     -0.02107              0.00015             -0.07100         *
 * O         7      0.01560             -0.00946              0.04583         *
 * O         8      0.01544             -0.00952              0.04578         *
 * O         9     -0.00612              0.08882              0.05472         *
 * O        10     -0.00602              0.08886              0.05472         *
 * O        11      0.04714             -0.02566             -0.03339         *
 * O        12      0.04704             -0.02562             -0.03340         *
 * O        13      0.00612             -0.08882             -0.05472         *
 * O        14      0.00602             -0.08886             -0.05472         *
 * O        15     -0.04714              0.02566              0.03339         *
 * O        16     -0.04704              0.02562              0.03340         *
 * O        17      0.15743              0.07588              0.03859         *
 * O        18      0.15736              0.07594              0.03857         *
 * O        19     -0.14717             -0.00467              0.05854         *
 * O        20     -0.14710             -0.00460              0.05856         *
 * O        21     -0.15743             -0.07588             -0.03859         *
 * O        22     -0.15736             -0.07594             -0.03857         *
 * O        23      0.14717              0.00467             -0.05854         *
 * O        24      0.14710              0.00460             -0.05856         *
 * Na        1     -0.00812              0.01637             -0.01491         *
 * Na        2     -0.00812              0.01625             -0.01491         *
 * Na        3      0.00812             -0.01637              0.01491         *
 * Na        4      0.00812             -0.01625              0.01491         *
 * Al        1      0.03833             -0.02274             -0.00196         *
 * Al        2      0.03833             -0.02266             -0.00196         *
 * Al        3     -0.03833              0.02274              0.00196         *
 * Al        4     -0.03833              0.02266              0.00196         *
 * Si        1     -0.12736              0.12061             -0.01724         *
 * Si        2     -0.12754              0.12066             -0.01726         *
 * Si        3      0.15305              0.32095              0.01003         *
 * Si        4      0.15322              0.32101              0.01006         *
 * Si        5      0.12736             -0.12061              0.01724         *
 * Si        6      0.12754             -0.12066              0.01726         *
 * Si        7     -0.15305             -0.32095             -0.01003         *
 * Si        8     -0.15322             -0.32101             -0.01006         *
 *                                                                            *
 ******************************************************************************
  
 +------------+-------------+-------------+-----------------+ <-- min BFGS
 |    Step    |   lambda    |   F.delta   |    enthalpy     | <-- min BFGS
 +------------+-------------+-------------+-----------------+ <-- min BFGS
 |  previous  |    0.000000 |    0.000338 |   -16835.250380 | <-- min BFGS
 | trial step |    1.000000 |    0.000237 |   -16835.258212 | <-- min BFGS
 +------------+-------------+-------------+-----------------+ <-- min BFGS
  

--------------------------------------------------------------------------------
 BFGS: improving iteration         1 with line minimization (lambda=  3.339295)
--------------------------------------------------------------------------------
 
                           -------------------------------
                                     Cell Contents
                           -------------------------------
 
            xxxxxxxxxxxxxxxxxxxxxxxxxxxxxxxxxxxxxxxxxxxxxxxxxxxxxxxxxxxx
            x  Element    Atom        Fractional coordinates of atoms  x
            x            Number           u          v          w      x
            x----------------------------------------------------------x
            x  O            1         0.109390   0.076960   0.129506   x
            x  O            2         0.609392   0.576959   0.129509   x
            x  O            3         0.890644   0.076958   0.370592   x
            x  O            4         0.390643   0.576956   0.370590   x
            x  O            5         0.890610   0.923040   0.870494   x
            x  O            6         0.390608   0.423041   0.870491   x
            x  O            7         0.109356   0.923042   0.629408   x
            x  O            8         0.609357   0.423044   0.629410   x
            x  O            9         0.361033   0.263897   0.295562   x
            x  O           10         0.861032   0.763898   0.295561   x
            x  O           11         0.639079   0.263567   0.204585   x
            x  O           12         0.139080   0.763568   0.204586   x
            x  O           13         0.638967   0.736103   0.704438   x
            x  O           14         0.138968   0.236102   0.704439   x
            x  O           15         0.360921   0.736433   0.795415   x
            x  O           16         0.860920   0.236432   0.795414   x
            x  O           17         0.354381   0.008677   1.005511   x
            x  O           18         0.854384   0.508673   1.005520   x
            x  O           19         0.645634   0.008411   0.495066   x
            x  O           20         0.145631   0.508407   0.495056   x
            x  O           21         0.645619   0.991323  -0.005511   x
            x  O           22         0.145616   0.491327  -0.005520   x
            x  O           23         0.354366   0.991589   0.504934   x
            x  O           24         0.854369   0.491593   0.504944   x
            x  Na           1        -0.000023   0.301239   0.249936   x
            x  Na           2         0.499977   0.801243   0.249936   x
            x  Na           3         0.000023   0.698761   0.750064   x
            x  Na           4         0.500023   0.198757   0.750064   x
            x  Al           1         0.000085   0.906238   0.250038   x
            x  Al           2         0.500085   0.406238   0.250038   x
            x  Al           3        -0.000085   0.093762   0.749962   x
            x  Al           4         0.499915   0.593762   0.749962   x
            x  Si           1         0.290526   0.094102   0.227839   x
            x  Si           2         0.790528   0.594101   0.227845   x
            x  Si           3         0.709517   0.094724   0.272132   x
            x  Si           4         0.209516   0.594723   0.272126   x
            x  Si           5         0.709474   0.905898   0.772161   x
            x  Si           6         0.209472   0.405899   0.772155   x
            x  Si           7         0.290483   0.905276   0.727868   x
            x  Si           8         0.790484   0.405277   0.727874   x
            xxxxxxxxxxxxxxxxxxxxxxxxxxxxxxxxxxxxxxxxxxxxxxxxxxxxxxxxxxxx
 
 
------------------------------------------------------------------------ <-- SCF
SCF loop      Energy                           Energy gain       Timer   <-- SCF
                                               per atom          (sec)   <-- SCF
------------------------------------------------------------------------ <-- SCF
Initial  -1.68458336E+004                                        288.93  <-- SCF
      1  -1.68458991E+004                    1.63714747E-003     307.16  <-- SCF
      2  -1.68458992E+004                    9.12536785E-007     325.24  <-- SCF
      3  -1.68458992E+004                    1.21534237E-008     344.15  <-- SCF
      4  -1.68458992E+004                    2.38360051E-010     362.36  <-- SCF
      5  -1.68458992E+004                    4.17632796E-012     385.76  <-- SCF
------------------------------------------------------------------------ <-- SCF
 
Final energy =  -16845.89916640     eV
(energy not corrected for finite basis set)
 
 
 *********************************** Forces ***********************************
 *                                                                            *
 *                        Cartesian components (eV/A)                         *
 * -------------------------------------------------------------------------- *
 *                   x                    y                    z              *
 *                                                                            *
 * O         1     -0.07721             -0.00866              0.05898         *
 * O         2     -0.07737             -0.00861              0.05893         *
 * O         3      0.05046              0.02472             -0.03399         *
 * O         4      0.05062              0.02477             -0.03395         *
 * O         5      0.07721              0.00866             -0.05898         *
 * O         6      0.07737              0.00861             -0.05893         *
 * O         7     -0.05046             -0.02472              0.03399         *
 * O         8     -0.05062             -0.02477              0.03395         *
 * O         9     -0.00197              0.10999              0.04330         *
 * O        10     -0.00193              0.10994              0.04331         *
 * O        11     -0.00811              0.14130             -0.03658         *
 * O        12     -0.00814              0.14126             -0.03659         *
 * O        13      0.00197             -0.10999             -0.04330         *
 * O        14      0.00193             -0.10994             -0.04331         *
 * O        15      0.00811             -0.14130              0.03658         *
 * O        16      0.00814             -0.14126              0.03659         *
 * O        17      0.06903              0.00141             -0.06088         *
 * O        18      0.06892              0.00145             -0.06093         *
 * O        19     -0.05340              0.05322             -0.03337         *
 * O        20     -0.05329              0.05327             -0.03332         *
 * O        21     -0.06903             -0.00141              0.06088         *
 * O        22     -0.06892             -0.00145              0.06093         *
 * O        23      0.05340             -0.05322              0.03337         *
 * O        24      0.05329             -0.05327              0.03332         *
 * Na        1      0.00236              0.04324             -0.01151         *
 * Na        2      0.00236              0.04314             -0.01150         *
 * Na        3     -0.00236             -0.04324              0.01151         *
 * Na        4     -0.00236             -0.04314              0.01150         *
 * Al        1      0.01768             -0.02763             -0.00036         *
 * Al        2      0.01768             -0.02759             -0.00036         *
 * Al        3     -0.01768              0.02763              0.00036         *
 * Al        4     -0.01768              0.02759              0.00036         *
 * Si        1      0.02117              0.05594             -0.00352         *
 * Si        2      0.02112              0.05604             -0.00353         *
 * Si        3      0.01168             -0.04107              0.01989         *
 * Si        4      0.01173             -0.04098              0.01989         *
 * Si        5     -0.02117             -0.05594              0.00352         *
 * Si        6     -0.02112             -0.05604              0.00353         *
 * Si        7     -0.01168              0.04107             -0.01989         *
 * Si        8     -0.01173              0.04098             -0.01989         *
 *                                                                            *
 ******************************************************************************
  
 +------------+-------------+-------------+-----------------+ <-- min BFGS
 |    Step    |   lambda    |   F.delta   |    enthalpy     | <-- min BFGS
 +------------+-------------+-------------+-----------------+ <-- min BFGS
 |  previous  |    0.000000 |    0.000338 |   -16835.250380 | <-- min BFGS
 | trial step |    1.000000 |    0.000237 |   -16835.258212 | <-- min BFGS
 |  line step |    3.339295 |    0.000000 |   -16835.265770 | <-- min BFGS
 +------------+-------------+-------------+-----------------+ <-- min BFGS
  
 BFGS: finished iteration     1 with enthalpy= -1.68352658E+004 eV
  
 +-----------+-----------------+-----------------+------------+-----+ <-- BFGS
 | Parameter |      value      |    tolerance    |    units   | OK? | <-- BFGS
 +-----------+-----------------+-----------------+------------+-----+ <-- BFGS
 |  dE/ion   |   3.847547E-004 |   2.000000E-007 |         eV | No  | <-- BFGS
 |  |F|max   |   1.461862E-001 |   1.000000E-003 |       eV/A | No  | <-- BFGS
 |  |dR|max  |   8.427107E-003 |   1.000000E-003 |          A | No  | <-- BFGS
 +-----------+-----------------+-----------------+------------+-----+ <-- BFGS
  

================================================================================
 Starting BFGS iteration          2 ...
================================================================================
 
Writing model to jadeite_4_30_GPa_cij__2__4.check
  
 +------------+-------------+-------------+-----------------+ <-- min BFGS
 |    Step    |   lambda    |   F.delta   |    enthalpy     | <-- min BFGS
 +------------+-------------+-------------+-----------------+ <-- min BFGS
 |  previous  |    0.000000 |    0.000052 |   -16835.265770 | <-- min BFGS
 +------------+-------------+-------------+-----------------+ <-- min BFGS
  

--------------------------------------------------------------------------------
 BFGS: starting iteration         2 with trial guess (lambda=  1.000000)
--------------------------------------------------------------------------------
 
                           -------------------------------
                                     Cell Contents
                           -------------------------------
 
            xxxxxxxxxxxxxxxxxxxxxxxxxxxxxxxxxxxxxxxxxxxxxxxxxxxxxxxxxxxx
            x  Element    Atom        Fractional coordinates of atoms  x
            x            Number           u          v          w      x
            x----------------------------------------------------------x
            x  O            1         0.109354   0.076955   0.129553   x
            x  O            2         0.609356   0.576954   0.129556   x
            x  O            3         0.890668   0.076972   0.370566   x
            x  O            4         0.390666   0.576971   0.370563   x
            x  O            5         0.890646   0.923045   0.870447   x
            x  O            6         0.390644   0.423046   0.870444   x
            x  O            7         0.109332   0.923028   0.629434   x
            x  O            8         0.609334   0.423029   0.629437   x
            x  O            9         0.361031   0.263966   0.295611   x
            x  O           10         0.861030   0.763967   0.295610   x
            x  O           11         0.639080   0.263638   0.204547   x
            x  O           12         0.139081   0.763639   0.204548   x
            x  O           13         0.638969   0.736034   0.704389   x
            x  O           14         0.138970   0.236033   0.704390   x
            x  O           15         0.360920   0.736362   0.795453   x
            x  O           16         0.860919   0.236361   0.795452   x
            x  O           17         0.354435   0.008688   1.005495   x
            x  O           18         0.854437   0.508684   1.005505   x
            x  O           19         0.645589   0.008438   0.495024   x
            x  O           20         0.145586   0.508435   0.495014   x
            x  O           21         0.645565   0.991312  -0.005495   x
            x  O           22         0.145563   0.491316  -0.005505   x
            x  O           23         0.354411   0.991562   0.504976   x
            x  O           24         0.854414   0.491565   0.504986   x
            x  Na           1        -0.000022   0.301264   0.249923   x
            x  Na           2         0.499978   0.801268   0.249923   x
            x  Na           3         0.000022   0.698736   0.750077   x
            x  Na           4         0.500022   0.198732   0.750077   x
            x  Al           1         0.000098   0.906221   0.250045   x
            x  Al           2         0.500098   0.406221   0.250045   x
            x  Al           3        -0.000098   0.093779   0.749955   x
            x  Al           4         0.499902   0.593779   0.749955   x
            x  Si           1         0.290522   0.094146   0.227830   x
            x  Si           2         0.790523   0.594145   0.227835   x
            x  Si           3         0.709542   0.094744   0.272165   x
            x  Si           4         0.209540   0.594743   0.272159   x
            x  Si           5         0.709478   0.905854   0.772170   x
            x  Si           6         0.209477   0.405855   0.772165   x
            x  Si           7         0.290458   0.905256   0.727835   x
            x  Si           8         0.790460   0.405257   0.727841   x
            xxxxxxxxxxxxxxxxxxxxxxxxxxxxxxxxxxxxxxxxxxxxxxxxxxxxxxxxxxxx
 
 
------------------------------------------------------------------------ <-- SCF
SCF loop      Energy                           Energy gain       Timer   <-- SCF
                                               per atom          (sec)   <-- SCF
------------------------------------------------------------------------ <-- SCF
Initial  -1.68458959E+004                                        395.04  <-- SCF
      1  -1.68459005E+004                    1.15346294E-004     413.22  <-- SCF
      2  -1.68459005E+004                    4.27853972E-008     431.31  <-- SCF
      3  -1.68459005E+004                    3.51894300E-010     449.41  <-- SCF
      4  -1.68459005E+004                    7.96595889E-012     470.51  <-- SCF
------------------------------------------------------------------------ <-- SCF
 
Final energy =  -16845.90049012     eV
(energy not corrected for finite basis set)
 
 
 *********************************** Forces ***********************************
 *                                                                            *
 *                        Cartesian components (eV/A)                         *
 * -------------------------------------------------------------------------- *
 *                   x                    y                    z              *
 *                                                                            *
 * O         1     -0.06165             -0.00379              0.05529         *
 * O         2     -0.06178             -0.00374              0.05525         *
 * O         3      0.04498              0.02581             -0.03258         *
 * O         4      0.04512              0.02587             -0.03254         *
 * O         5      0.06165              0.00379             -0.05529         *
 * O         6      0.06178              0.00374             -0.05525         *
 * O         7     -0.04498             -0.02581              0.03258         *
 * O         8     -0.04512             -0.02587              0.03254         *
 * O         9     -0.00879              0.09687              0.04147         *
 * O        10     -0.00875              0.09683              0.04148         *
 * O        11      0.00158              0.12158             -0.03480         *
 * O        12      0.00154              0.12154             -0.03481         *
 * O        13      0.00879             -0.09687             -0.04147         *
 * O        14      0.00875             -0.09683             -0.04148         *
 * O        15     -0.00158             -0.12158              0.03480         *
 * O        16     -0.00154             -0.12154              0.03481         *
 * O        17      0.05773              0.00585             -0.05205         *
 * O        18      0.05762              0.00589             -0.05210         *
 * O        19     -0.04511              0.04516             -0.02188         *
 * O        20     -0.04499              0.04520             -0.02183         *
 * O        21     -0.05773             -0.00585              0.05205         *
 * O        22     -0.05762             -0.00589              0.05210         *
 * O        23      0.04511             -0.04516              0.02188         *
 * O        24      0.04499             -0.04520              0.02183         *
 * Na        1      0.00187              0.04334             -0.01175         *
 * Na        2      0.00187              0.04324             -0.01175         *
 * Na        3     -0.00187             -0.04334              0.01175         *
 * Na        4     -0.00187             -0.04324              0.01175         *
 * Al        1      0.01758             -0.02135             -0.00130         *
 * Al        2      0.01758             -0.02132             -0.00130         *
 * Al        3     -0.01758              0.02135              0.00130         *
 * Al        4     -0.01758              0.02132              0.00130         *
 * Si        1      0.02456              0.04264             -0.00227         *
 * Si        2      0.02449              0.04271             -0.00227         *
 * Si        3      0.00185             -0.03399              0.01375         *
 * Si        4      0.00191             -0.03393              0.01375         *
 * Si        5     -0.02456             -0.04264              0.00227         *
 * Si        6     -0.02449             -0.04271              0.00227         *
 * Si        7     -0.00185              0.03399             -0.01375         *
 * Si        8     -0.00191              0.03393             -0.01375         *
 *                                                                            *
 ******************************************************************************
  
 +------------+-------------+-------------+-----------------+ <-- min BFGS
 |    Step    |   lambda    |   F.delta   |    enthalpy     | <-- min BFGS
 +------------+-------------+-------------+-----------------+ <-- min BFGS
 |  previous  |    0.000000 |    0.000052 |   -16835.265770 | <-- min BFGS
 | trial step |    1.000000 |    0.000045 |   -16835.267094 | <-- min BFGS
 +------------+-------------+-------------+-----------------+ <-- min BFGS
  

--------------------------------------------------------------------------------
 BFGS: improving iteration         2 with line minimization (lambda=  7.192397)
--------------------------------------------------------------------------------
 
                           -------------------------------
                                     Cell Contents
                           -------------------------------
 
            xxxxxxxxxxxxxxxxxxxxxxxxxxxxxxxxxxxxxxxxxxxxxxxxxxxxxxxxxxxx
            x  Element    Atom        Fractional coordinates of atoms  x
            x            Number           u          v          w      x
            x----------------------------------------------------------x
            x  O            1         0.109129   0.076925   0.129843   x
            x  O            2         0.609130   0.576924   0.129845   x
            x  O            3         0.890813   0.077061   0.370401   x
            x  O            4         0.390812   0.577060   0.370399   x
            x  O            5         0.890871   0.923075   0.870157   x
            x  O            6         0.390870   0.423076   0.870155   x
            x  O            7         0.109187   0.922939   0.629599   x
            x  O            8         0.609188   0.422940   0.629601   x
            x  O            9         0.361020   0.264395   0.295911   x
            x  O           10         0.861020   0.764396   0.295911   x
            x  O           11         0.639090   0.264081   0.204310   x
            x  O           12         0.139091   0.764081   0.204310   x
            x  O           13         0.638980   0.735605   0.704089   x
            x  O           14         0.138980   0.235604   0.704089   x
            x  O           15         0.360910   0.735919   0.795690   x
            x  O           16         0.860909   0.235919   0.795690   x
            x  O           17         0.354768   0.008755   1.005399   x
            x  O           18         0.854770   0.508752   1.005409   x
            x  O           19         0.645312   0.008606   0.494769   x
            x  O           20         0.145310   0.508603   0.494759   x
            x  O           21         0.645232   0.991245  -0.005399   x
            x  O           22         0.145230   0.491248  -0.005409   x
            x  O           23         0.354688   0.991394   0.505231   x
            x  O           24         0.854690   0.491397   0.505241   x
            x  Na           1        -0.000021   0.301418   0.249842   x
            x  Na           2         0.499979   0.801422   0.249842   x
            x  Na           3         0.000021   0.698582   0.750158   x
            x  Na           4         0.500021   0.198578   0.750158   x
            x  Al           1         0.000182   0.906113   0.250087   x
            x  Al           2         0.500182   0.406114   0.250087   x
            x  Al           3        -0.000182   0.093887   0.749913   x
            x  Al           4         0.499818   0.593886   0.749913   x
            x  Si           1         0.290492   0.094424   0.227772   x
            x  Si           2         0.790493   0.594423   0.227777   x
            x  Si           3         0.709694   0.094863   0.272370   x
            x  Si           4         0.209692   0.594863   0.272365   x
            x  Si           5         0.709508   0.905576   0.772228   x
            x  Si           6         0.209507   0.405577   0.772223   x
            x  Si           7         0.290306   0.905137   0.727630   x
            x  Si           8         0.790308   0.405137   0.727635   x
            xxxxxxxxxxxxxxxxxxxxxxxxxxxxxxxxxxxxxxxxxxxxxxxxxxxxxxxxxxxx
 
 
------------------------------------------------------------------------ <-- SCF
SCF loop      Energy                           Energy gain       Timer   <-- SCF
                                               per atom          (sec)   <-- SCF
------------------------------------------------------------------------ <-- SCF
Initial  -1.68457616E+004                                        478.66  <-- SCF
      1  -1.68459042E+004                    3.56656768E-003     496.90  <-- SCF
      2  -1.68459043E+004                    1.29958115E-006     515.05  <-- SCF
      3  -1.68459043E+004                    1.03521889E-008     533.12  <-- SCF
      4  -1.68459043E+004                    2.06032179E-010     552.04  <-- SCF
      5  -1.68459043E+004                    6.26449194E-012     570.92  <-- SCF
------------------------------------------------------------------------ <-- SCF
 
Final energy =  -16845.90429684     eV
(energy not corrected for finite basis set)
 
 
 *********************************** Forces ***********************************
 *                                                                            *
 *                        Cartesian components (eV/A)                         *
 * -------------------------------------------------------------------------- *
 *                   x                    y                    z              *
 *                                                                            *
 * O         1      0.03432              0.02655              0.03237         *
 * O         2      0.03433              0.02663              0.03236         *
 * O         3      0.01104              0.03260             -0.02381         *
 * O         4      0.01103              0.03267             -0.02380         *
 * O         5     -0.03432             -0.02655             -0.03237         *
 * O         6     -0.03433             -0.02663             -0.03236         *
 * O         7     -0.01104             -0.03260              0.02381         *
 * O         8     -0.01103             -0.03267              0.02380         *
 * O         9     -0.05097              0.01603              0.03014         *
 * O        10     -0.05092              0.01606              0.03016         *
 * O        11      0.06133              0.00027             -0.02389         *
 * O        12      0.06128              0.00028             -0.02392         *
 * O        13      0.05097             -0.01603             -0.03014         *
 * O        14      0.05092             -0.01606             -0.03016         *
 * O        15     -0.06133             -0.00027              0.02389         *
 * O        16     -0.06128             -0.00028              0.02392         *
 * O        17     -0.01214              0.03307              0.00202         *
 * O        18     -0.01227              0.03311              0.00197         *
 * O        19      0.00601             -0.00417              0.04819         *
 * O        20      0.00614             -0.00414              0.04824         *
 * O        21      0.01214             -0.03307             -0.00202         *
 * O        22      0.01227             -0.03311             -0.00197         *
 * O        23     -0.00601              0.00417             -0.04819         *
 * O        24     -0.00614              0.00414             -0.04824         *
 * Na        1     -0.00110              0.04400             -0.01330         *
 * Na        2     -0.00110              0.04391             -0.01330         *
 * Na        3      0.00110             -0.04400              0.01330         *
 * Na        4      0.00110             -0.04391              0.01330         *
 * Al        1      0.01678              0.01773             -0.00703         *
 * Al        2      0.01678              0.01772             -0.00702         *
 * Al        3     -0.01678             -0.01773              0.00703         *
 * Al        4     -0.01678             -0.01772              0.00702         *
 * Si        1      0.04530             -0.03913              0.00533         *
 * Si        2      0.04518             -0.03920              0.00531         *
 * Si        3     -0.05848              0.00880             -0.02403         *
 * Si        4     -0.05836              0.00874             -0.02400         *
 * Si        5     -0.04530              0.03913             -0.00533         *
 * Si        6     -0.04518              0.03920             -0.00531         *
 * Si        7      0.05848             -0.00880              0.02403         *
 * Si        8      0.05836             -0.00874              0.02400         *
 *                                                                            *
 ******************************************************************************
  
 +------------+-------------+-------------+-----------------+ <-- min BFGS
 |    Step    |   lambda    |   F.delta   |    enthalpy     | <-- min BFGS
 +------------+-------------+-------------+-----------------+ <-- min BFGS
 |  previous  |    0.000000 |    0.000052 |   -16835.265770 | <-- min BFGS
 | trial step |    1.000000 |    0.000045 |   -16835.267094 | <-- min BFGS
 |  line step |    7.192397 |    0.000000 |   -16835.270901 | <-- min BFGS
 +------------+-------------+-------------+-----------------+ <-- min BFGS
  
 BFGS: finished iteration     2 with enthalpy= -1.68352709E+004 eV
  
 +-----------+-----------------+-----------------+------------+-----+ <-- BFGS
 | Parameter |      value      |    tolerance    |    units   | OK? | <-- BFGS
 +-----------+-----------------+-----------------+------------+-----+ <-- BFGS
 |  dE/ion   |   1.282609E-004 |   2.000000E-007 |         eV | No  | <-- BFGS
 |  |F|max   |   6.582398E-002 |   1.000000E-003 |       eV/A | No  | <-- BFGS
 |  |dR|max  |   4.648226E-003 |   1.000000E-003 |          A | No  | <-- BFGS
 +-----------+-----------------+-----------------+------------+-----+ <-- BFGS
  

================================================================================
 Starting BFGS iteration          3 ...
================================================================================
 
Writing model to jadeite_4_30_GPa_cij__2__4.check
  
 +------------+-------------+-------------+-----------------+ <-- min BFGS
 |    Step    |   lambda    |   F.delta   |    enthalpy     | <-- min BFGS
 +------------+-------------+-------------+-----------------+ <-- min BFGS
 |  previous  |    0.000000 |    0.000019 |   -16835.270901 | <-- min BFGS
 +------------+-------------+-------------+-----------------+ <-- min BFGS
  

--------------------------------------------------------------------------------
 BFGS: starting iteration         3 with trial guess (lambda=  1.000000)
--------------------------------------------------------------------------------
 
                           -------------------------------
                                     Cell Contents
                           -------------------------------
 
            xxxxxxxxxxxxxxxxxxxxxxxxxxxxxxxxxxxxxxxxxxxxxxxxxxxxxxxxxxxx
            x  Element    Atom        Fractional coordinates of atoms  x
            x            Number           u          v          w      x
            x----------------------------------------------------------x
            x  O            1         0.109133   0.076938   0.129901   x
            x  O            2         0.609134   0.576937   0.129902   x
            x  O            3         0.890829   0.077086   0.370372   x
            x  O            4         0.390828   0.577085   0.370370   x
            x  O            5         0.890867   0.923062   0.870099   x
            x  O            6         0.390866   0.423063   0.870098   x
            x  O            7         0.109171   0.922914   0.629628   x
            x  O            8         0.609172   0.422915   0.629630   x
            x  O            9         0.360992   0.264431   0.295943   x
            x  O           10         0.860992   0.764431   0.295942   x
            x  O           11         0.639123   0.264110   0.204291   x
            x  O           12         0.139124   0.764110   0.204291   x
            x  O           13         0.639008   0.735569   0.704057   x
            x  O           14         0.139008   0.235569   0.704058   x
            x  O           15         0.360877   0.735890   0.795709   x
            x  O           16         0.860876   0.235890   0.795709   x
            x  O           17         0.354781   0.008777   1.005390   x
            x  O           18         0.854783   0.508774   1.005399   x
            x  O           19         0.645299   0.008614   0.494799   x
            x  O           20         0.145297   0.508611   0.494790   x
            x  O           21         0.645219   0.991223  -0.005390   x
            x  O           22         0.145217   0.491226  -0.005399   x
            x  O           23         0.354701   0.991386   0.505201   x
            x  O           24         0.854703   0.491389   0.505210   x
            x  Na           1        -0.000022   0.301453   0.249824   x
            x  Na           2         0.499978   0.801456   0.249824   x
            x  Na           3         0.000022   0.698547   0.750176   x
            x  Na           4         0.500022   0.198544   0.750176   x
            x  Al           1         0.000196   0.906117   0.250087   x
            x  Al           2         0.500196   0.406117   0.250087   x
            x  Al           3        -0.000196   0.093883   0.749913   x
            x  Al           4         0.499804   0.593883   0.749913   x
            x  Si           1         0.290516   0.094418   0.227788   x
            x  Si           2         0.790517   0.594418   0.227793   x
            x  Si           3         0.709670   0.094872   0.272342   x
            x  Si           4         0.209669   0.594871   0.272337   x
            x  Si           5         0.709484   0.905582   0.772212   x
            x  Si           6         0.209483   0.405582   0.772207   x
            x  Si           7         0.290330   0.905128   0.727658   x
            x  Si           8         0.790331   0.405129   0.727663   x
            xxxxxxxxxxxxxxxxxxxxxxxxxxxxxxxxxxxxxxxxxxxxxxxxxxxxxxxxxxxx
 
 
------------------------------------------------------------------------ <-- SCF
SCF loop      Energy                           Energy gain       Timer   <-- SCF
                                               per atom          (sec)   <-- SCF
------------------------------------------------------------------------ <-- SCF
Initial  -1.68459026E+004                                        580.23  <-- SCF
      1  -1.68459048E+004                    5.39369530E-005     598.61  <-- SCF
      2  -1.68459048E+004                    2.07123438E-008     617.24  <-- SCF
      3  -1.68459048E+004                    1.27068645E-010     636.01  <-- SCF
      4  -1.68459048E+004                    3.78963093E-012     656.35  <-- SCF
------------------------------------------------------------------------ <-- SCF
 
Final energy =  -16845.90479105     eV
(energy not corrected for finite basis set)
 
 
 *********************************** Forces ***********************************
 *                                                                            *
 *                        Cartesian components (eV/A)                         *
 * -------------------------------------------------------------------------- *
 *                   x                    y                    z              *
 *                                                                            *
 * O         1      0.03736              0.02567              0.02827         *
 * O         2      0.03736              0.02574              0.02826         *
 * O         3      0.00034              0.03268             -0.02204         *
 * O         4      0.00035              0.03275             -0.02203         *
 * O         5     -0.03736             -0.02567             -0.02827         *
 * O         6     -0.03736             -0.02574             -0.02826         *
 * O         7     -0.00034             -0.03268              0.02204         *
 * O         8     -0.00035             -0.03275              0.02203         *
 * O         9     -0.04919              0.01013              0.02715         *
 * O        10     -0.04915              0.01013              0.02717         *
 * O        11      0.05837             -0.00188             -0.02313         *
 * O        12      0.05833             -0.00189             -0.02315         *
 * O        13      0.04919             -0.01013             -0.02715         *
 * O        14      0.04915             -0.01013             -0.02717         *
 * O        15     -0.05837              0.00188              0.02313         *
 * O        16     -0.05833              0.00189              0.02315         *
 * O        17     -0.01046              0.03185              0.00034         *
 * O        18     -0.01059              0.03189              0.00030         *
 * O        19      0.00519              0.00169              0.03948         *
 * O        20      0.00532              0.00172              0.03953         *
 * O        21      0.01046             -0.03185             -0.00034         *
 * O        22      0.01059             -0.03189             -0.00030         *
 * O        23     -0.00519             -0.00169             -0.03948         *
 * O        24     -0.00532             -0.00172             -0.03953         *
 * Na        1     -0.00042              0.04164             -0.01264         *
 * Na        2     -0.00042              0.04156             -0.01264         *
 * Na        3      0.00042             -0.04164              0.01264         *
 * Na        4      0.00042             -0.04156              0.01264         *
 * Al        1      0.01420              0.01951             -0.00607         *
 * Al        2      0.01419              0.01950             -0.00607         *
 * Al        3     -0.01420             -0.01951              0.00607         *
 * Al        4     -0.01419             -0.01950              0.00607         *
 * Si        1      0.03655             -0.02932              0.00558         *
 * Si        2      0.03646             -0.02936              0.00556         *
 * Si        3     -0.04614              0.00552             -0.01966         *
 * Si        4     -0.04605              0.00549             -0.01963         *
 * Si        5     -0.03655              0.02932             -0.00558         *
 * Si        6     -0.03646              0.02936             -0.00556         *
 * Si        7      0.04614             -0.00552              0.01966         *
 * Si        8      0.04605             -0.00549              0.01963         *
 *                                                                            *
 ******************************************************************************
  
 +------------+-------------+-------------+-----------------+ <-- min BFGS
 |    Step    |   lambda    |   F.delta   |    enthalpy     | <-- min BFGS
 +------------+-------------+-------------+-----------------+ <-- min BFGS
 |  previous  |    0.000000 |    0.000019 |   -16835.270901 | <-- min BFGS
 | trial step |    1.000000 |    0.000017 |   -16835.271395 | <-- min BFGS
 +------------+-------------+-------------+-----------------+ <-- min BFGS
  

--------------------------------------------------------------------------------
 BFGS: improving iteration         3 with line minimization (lambda=  8.633539)
--------------------------------------------------------------------------------
 
                           -------------------------------
                                     Cell Contents
                           -------------------------------
 
            xxxxxxxxxxxxxxxxxxxxxxxxxxxxxxxxxxxxxxxxxxxxxxxxxxxxxxxxxxxx
            x  Element    Atom        Fractional coordinates of atoms  x
            x            Number           u          v          w      x
            x----------------------------------------------------------x
            x  O            1         0.109164   0.077040   0.130341   x
            x  O            2         0.609164   0.577039   0.130343   x
            x  O            3         0.890947   0.077270   0.370153   x
            x  O            4         0.390946   0.577269   0.370152   x
            x  O            5         0.890836   0.922960   0.869659   x
            x  O            6         0.390836   0.422961   0.869657   x
            x  O            7         0.109053   0.922730   0.629847   x
            x  O            8         0.609054   0.422731   0.629848   x
            x  O            9         0.360777   0.264700   0.296183   x
            x  O           10         0.860777   0.764700   0.296183   x
            x  O           11         0.639377   0.264330   0.204145   x
            x  O           12         0.139378   0.764331   0.204145   x
            x  O           13         0.639223   0.735300   0.703817   x
            x  O           14         0.139223   0.235300   0.703817   x
            x  O           15         0.360623   0.735670   0.795855   x
            x  O           16         0.860622   0.235669   0.795855   x
            x  O           17         0.354880   0.008946   1.005317   x
            x  O           18         0.854882   0.508943   1.005326   x
            x  O           19         0.645202   0.008679   0.495033   x
            x  O           20         0.145200   0.508676   0.495025   x
            x  O           21         0.645120   0.991054  -0.005317   x
            x  O           22         0.145118   0.491057  -0.005326   x
            x  O           23         0.354798   0.991321   0.504967   x
            x  O           24         0.854800   0.491324   0.504975   x
            x  Na           1        -0.000025   0.301717   0.249689   x
            x  Na           2         0.499975   0.801720   0.249689   x
            x  Na           3         0.000025   0.698283   0.750311   x
            x  Na           4         0.500025   0.198280   0.750311   x
            x  Al           1         0.000303   0.906144   0.250094   x
            x  Al           2         0.500303   0.406144   0.250094   x
            x  Al           3        -0.000303   0.093856   0.749906   x
            x  Al           4         0.499697   0.593856   0.749906   x
            x  Si           1         0.290700   0.094375   0.227909   x
            x  Si           2         0.790700   0.594374   0.227913   x
            x  Si           3         0.709490   0.094938   0.272128   x
            x  Si           4         0.209489   0.594938   0.272123   x
            x  Si           5         0.709300   0.905625   0.772091   x
            x  Si           6         0.209300   0.405626   0.772087   x
            x  Si           7         0.290510   0.905062   0.727872   x
            x  Si           8         0.790511   0.405062   0.727877   x
            xxxxxxxxxxxxxxxxxxxxxxxxxxxxxxxxxxxxxxxxxxxxxxxxxxxxxxxxxxxx
 
 
------------------------------------------------------------------------ <-- SCF
SCF loop      Energy                           Energy gain       Timer   <-- SCF
                                               per atom          (sec)   <-- SCF
------------------------------------------------------------------------ <-- SCF
Initial  -1.68458157E+004                                        664.57  <-- SCF
      1  -1.68459065E+004                    2.27043668E-003     682.71  <-- SCF
      2  -1.68459066E+004                    8.08967409E-007     700.76  <-- SCF
      3  -1.68459066E+004                    5.22814389E-009     718.77  <-- SCF
      4  -1.68459066E+004                    1.04176181E-010     736.74  <-- SCF
------------------------------------------------------------------------ <-- SCF
 
Final energy =  -16845.90656378     eV
(energy not corrected for finite basis set)
 
 
 *********************************** Forces ***********************************
 *                                                                            *
 *                        Cartesian components (eV/A)                         *
 * -------------------------------------------------------------------------- *
 *                   x                    y                    z              *
 *                                                                            *
 * O         1      0.06050              0.01890             -0.00296         *
 * O         2      0.06040              0.01892             -0.00296         *
 * O         3     -0.08067              0.03318             -0.00847         *
 * O         4     -0.08057              0.03320             -0.00848         *
 * O         5     -0.06050             -0.01890              0.00296         *
 * O         6     -0.06040             -0.01892              0.00296         *
 * O         7      0.08067             -0.03318              0.00847         *
 * O         8      0.08057             -0.03320              0.00848         *
 * O         9     -0.03554             -0.03502              0.00433         *
 * O        10     -0.03562             -0.03520              0.00435         *
 * O        11      0.03581             -0.01838             -0.01731         *
 * O        12      0.03588             -0.01854             -0.01733         *
 * O        13      0.03554              0.03502             -0.00433         *
 * O        14      0.03562              0.03520             -0.00435         *
 * O        15     -0.03581              0.01838              0.01731         *
 * O        16     -0.03588              0.01854              0.01733         *
 * O        17      0.00234              0.02246             -0.01247         *
 * O        18      0.00223              0.02248             -0.01253         *
 * O        19     -0.00123              0.04641             -0.02688         *
 * O        20     -0.00112              0.04643             -0.02684         *
 * O        21     -0.00234             -0.02246              0.01247         *
 * O        22     -0.00223             -0.02248              0.01253         *
 * O        23      0.00123             -0.04641              0.02688         *
 * O        24      0.00112             -0.04643              0.02684         *
 * Na        1      0.00477              0.02367             -0.00758         *
 * Na        2      0.00477              0.02362             -0.00758         *
 * Na        3     -0.00477             -0.02367              0.00758         *
 * Na        4     -0.00477             -0.02362              0.00758         *
 * Al        1     -0.00545              0.03313              0.00130         *
 * Al        2     -0.00545              0.03307              0.00130         *
 * Al        3      0.00545             -0.03313             -0.00130         *
 * Al        4      0.00545             -0.03307             -0.00130         *
 * Si        1     -0.03033              0.04581              0.00746         *
 * Si        2     -0.03020              0.04598              0.00744         *
 * Si        3      0.04755             -0.01923              0.01349         *
 * Si        4      0.04743             -0.01907              0.01351         *
 * Si        5      0.03033             -0.04581             -0.00746         *
 * Si        6      0.03020             -0.04598             -0.00744         *
 * Si        7     -0.04755              0.01923             -0.01349         *
 * Si        8     -0.04743              0.01907             -0.01351         *
 *                                                                            *
 ******************************************************************************
  
 +------------+-------------+-------------+-----------------+ <-- min BFGS
 |    Step    |   lambda    |   F.delta   |    enthalpy     | <-- min BFGS
 +------------+-------------+-------------+-----------------+ <-- min BFGS
 |  previous  |    0.000000 |    0.000019 |   -16835.270901 | <-- min BFGS
 | trial step |    1.000000 |    0.000017 |   -16835.271395 | <-- min BFGS
 |  line step |    8.633539 |    0.000000 |   -16835.273168 | <-- min BFGS
 +------------+-------------+-------------+-----------------+ <-- min BFGS
  
 BFGS: finished iteration     3 with enthalpy= -1.68352732E+004 eV
  
 +-----------+-----------------+-----------------+------------+-----+ <-- BFGS
 | Parameter |      value      |    tolerance    |    units   | OK? | <-- BFGS
 +-----------+-----------------+-----------------+------------+-----+ <-- BFGS
 |  dE/ion   |   5.667366E-005 |   2.000000E-007 |         eV | No  | <-- BFGS
 |  |F|max   |   8.763606E-002 |   1.000000E-003 |       eV/A | No  | <-- BFGS
 |  |dR|max  |   4.001922E-003 |   1.000000E-003 |          A | No  | <-- BFGS
[...]
            x  O           20         0.145254   0.510140   0.496704   x
            x  O           21         0.645150   0.989509  -0.003445   x
            x  O           22         0.145150   0.489509  -0.003445   x
            x  O           23         0.354746   0.989860   0.503296   x
            x  O           24         0.854746   0.489860   0.503296   x
            x  Na           1         0.000213   0.302861   0.249204   x
            x  Na           2         0.500213   0.802861   0.249204   x
            x  Na           3        -0.000213   0.697139   0.750796   x
            x  Na           4         0.499787   0.197139   0.750796   x
            x  Al           1         0.000334   0.906186   0.250114   x
            x  Al           2         0.500334   0.406186   0.250114   x
            x  Al           3        -0.000334   0.093814   0.749886   x
            x  Al           4         0.499666   0.593814   0.749886   x
            x  Si           1         0.290762   0.094482   0.227710   x
            x  Si           2         0.790762   0.594482   0.227710   x
            x  Si           3         0.709545   0.094922   0.272426   x
            x  Si           4         0.209545   0.594922   0.272425   x
            x  Si           5         0.709238   0.905518   0.772290   x
            x  Si           6         0.209238   0.405518   0.772290   x
            x  Si           7         0.290455   0.905078   0.727574   x
            x  Si           8         0.790455   0.405078   0.727575   x
            xxxxxxxxxxxxxxxxxxxxxxxxxxxxxxxxxxxxxxxxxxxxxxxxxxxxxxxxxxxx
 
 
 BFGS: Final Enthalpy     = -1.68352765E+004 eV
 BFGS: Final <frequency>  =     965.85459 cm-1
 
 ***************************** Symmetrised Forces *****************************
 *                                                                            *
 *                        Cartesian components (eV/A)                         *
 * -------------------------------------------------------------------------- *
 *                   x                    y                    z              *
 *                                                                            *
 * O         1      0.00027              0.00011              0.00035         *
 * O         2      0.00031              0.00011              0.00035         *
 * O         3      0.00028              0.00018              0.00049         *
 * O         4      0.00028              0.00018              0.00049         *
 * O         5     -0.00027             -0.00011             -0.00035         *
 * O         6     -0.00031             -0.00011             -0.00035         *
 * O         7     -0.00028             -0.00018             -0.00049         *
 * O         8     -0.00028             -0.00018             -0.00049         *
 * O         9      0.00040              0.00054             -0.00029         *
 * O        10      0.00042              0.00058             -0.00029         *
 * O        11      0.00034             -0.00016              0.00049         *
 * O        12      0.00033             -0.00017              0.00049         *
 * O        13     -0.00040             -0.00054              0.00029         *
 * O        14     -0.00042             -0.00058              0.00029         *
 * O        15     -0.00034              0.00016             -0.00049         *
 * O        16     -0.00033              0.00017             -0.00049         *
 * O        17     -0.00016             -0.00004             -0.00019         *
 * O        18     -0.00014             -0.00004             -0.00020         *
 * O        19      0.00046              0.00009              0.00011         *
 * O        20      0.00045              0.00009              0.00011         *
 * O        21      0.00016              0.00004              0.00019         *
 * O        22      0.00014              0.00004              0.00020         *
 * O        23     -0.00046             -0.00009             -0.00011         *
 * O        24     -0.00045             -0.00009             -0.00011         *
 * Na        1     -0.00028              0.00016              0.00000         *
 * Na        2     -0.00028              0.00016              0.00000         *
 * Na        3      0.00028             -0.00016              0.00000         *
 * Na        4      0.00028             -0.00016              0.00000         *
 * Al        1      0.00033             -0.00010              0.00044         *
 * Al        2      0.00033             -0.00010              0.00044         *
 * Al        3     -0.00033              0.00010             -0.00044         *
 * Al        4     -0.00033              0.00010             -0.00044         *
 * Si        1      0.00010              0.00030              0.00003         *
 * Si        2      0.00002              0.00028              0.00004         *
 * Si        3      0.00019              0.00003              0.00005         *
 * Si        4      0.00020              0.00005              0.00005         *
 * Si        5     -0.00010             -0.00030             -0.00003         *
 * Si        6     -0.00002             -0.00028             -0.00004         *
 * Si        7     -0.00019             -0.00003             -0.00005         *
 * Si        8     -0.00020             -0.00005             -0.00005         *
 *                                                                            *
 ******************************************************************************
 
 *********** Symmetrised Stress Tensor ***********
 *                                               *
 *          Cartesian components (GPa)           *
 * --------------------------------------------- *
 *             x             y             z     *
 *                                               *
 *  x     -5.037444     -0.710304     -0.696978  *
 *  y     -0.710304     -5.139728     -0.082519  *
 *  z     -0.696978     -0.082519     -7.765104  *
 *                                               *
 *  Pressure:    5.9808                          *
 *                                               *
 *************************************************
 
 Pseudo atomic calculation performed for O 2s2 2p4
 
 Converged in 36 iterations to a total energy of -429.6485 eV
 
 
 Pseudo atomic calculation performed for Na 2s2 2p6 3s1
 
 Converged in 33 iterations to a total energy of -1302.8467 eV
 
 
 Pseudo atomic calculation performed for Al 3s2 3p1
 
 Converged in 20 iterations to a total energy of -52.7392 eV
 
 
 Pseudo atomic calculation performed for Si 3s2 3p2
 
 Converged in 21 iterations to a total energy of -101.9044 eV
 
Charge spilling parameter for spin component 1 = 0.85%
 
     Atomic Populations (Mulliken)
     -----------------------------
Species   Ion     s      p      d      f     Total  Charge (e)
==============================================================
  O        1     1.84   5.24   0.00   0.00   7.08    -1.08
  O        2     1.84   5.24   0.00   0.00   7.08    -1.08
  O        3     1.84   5.24   0.00   0.00   7.08    -1.08
  O        4     1.84   5.24   0.00   0.00   7.08    -1.08
  O        5     1.84   5.24   0.00   0.00   7.08    -1.08
  O        6     1.84   5.24   0.00   0.00   7.08    -1.08
  O        7     1.84   5.24   0.00   0.00   7.08    -1.08
  O        8     1.84   5.24   0.00   0.00   7.08    -1.08
  O        9     1.84   5.29   0.00   0.00   7.12    -1.12
  O       10     1.84   5.29   0.00   0.00   7.12    -1.12
  O       11     1.84   5.28   0.00   0.00   7.12    -1.12
  O       12     1.84   5.28   0.00   0.00   7.12    -1.12
  O       13     1.84   5.29   0.00   0.00   7.12    -1.12
  O       14     1.84   5.29   0.00   0.00   7.12    -1.12
  O       15     1.84   5.28   0.00   0.00   7.12    -1.12
  O       16     1.84   5.28   0.00   0.00   7.12    -1.12
  O       17     1.83   5.30   0.00   0.00   7.13    -1.13
  O       18     1.83   5.30   0.00   0.00   7.13    -1.13
  O       19     1.83   5.30   0.00   0.00   7.13    -1.13
  O       20     1.83   5.30   0.00   0.00   7.13    -1.13
  O       21     1.83   5.30   0.00   0.00   7.13    -1.13
  O       22     1.83   5.30   0.00   0.00   7.13    -1.13
  O       23     1.83   5.30   0.00   0.00   7.13    -1.13
  O       24     1.83   5.30   0.00   0.00   7.13    -1.13
  Na       1     2.04   5.77   0.00   0.00   7.81     1.19
  Na       2     2.04   5.77   0.00   0.00   7.81     1.19
  Na       3     2.04   5.77   0.00   0.00   7.81     1.19
  Na       4     2.04   5.77   0.00   0.00   7.81     1.19
  Al       1     0.51   0.92   0.00   0.00   1.42     1.58
  Al       2     0.51   0.92   0.00   0.00   1.42     1.58
  Al       3     0.51   0.92   0.00   0.00   1.42     1.58
  Al       4     0.51   0.92   0.00   0.00   1.42     1.58
  Si       1     0.69   1.36   0.00   0.00   2.05     1.95
  Si       2     0.69   1.36   0.00   0.00   2.05     1.95
  Si       3     0.69   1.36   0.00   0.00   2.05     1.95
  Si       4     0.69   1.36   0.00   0.00   2.05     1.95
  Si       5     0.69   1.36   0.00   0.00   2.05     1.95
  Si       6     0.69   1.36   0.00   0.00   2.05     1.95
  Si       7     0.69   1.36   0.00   0.00   2.05     1.95
  Si       8     0.69   1.36   0.00   0.00   2.05     1.95
==============================================================
 
     Bond                     Population      Length (A)
============================================================
   O 010 --   Si 002               0.77        1.59031
   O 014 --   Si 006               0.77        1.59031
   O 013 --   Si 005               0.77        1.59031
   O 009 --   Si 001               0.77        1.59031
   O 011 --   Si 003               0.77        1.59247
   O 015 --   Si 007               0.77        1.59247
   O 016 --   Si 008               0.77        1.59247
   O 012 --   Si 004               0.77        1.59247
   O 022 --   Si 006               0.56        1.62542
   O 018 --   Si 002               0.56        1.62542
   O 021 --   Si 005               0.56        1.62542
   O 017 --   Si 001               0.56        1.62542
   O 024 --   Si 008               0.56        1.62581
   O 020 --   Si 004               0.56        1.62581
   O 023 --   Si 007               0.56        1.62581
   O 019 --   Si 003               0.56        1.62581
   O 005 --   Si 005               0.60        1.63484
   O 001 --   Si 001               0.60        1.63484
   O 006 --   Si 006               0.60        1.63484
   O 002 --   Si 002               0.60        1.63484
   O 020 --   Si 006               0.58        1.63569
   O 024 --   Si 002               0.58        1.63569
   O 019 --   Si 005               0.58        1.63569
   O 023 --   Si 001               0.58        1.63569
   O 008 --   Si 008               0.60        1.63580
   O 004 --   Si 004               0.60        1.63580
   O 003 --   Si 003               0.60        1.63580
   O 007 --   Si 007               0.60        1.63580
   O 018 --   Si 008               0.58        1.63624
   O 022 --   Si 004               0.58        1.63624
   O 017 --   Si 007               0.58        1.63624
   O 021 --   Si 003               0.58        1.63624
   O 009 --   Al 002               0.42        1.85041
   O 013 --   Al 004               0.42        1.85041
   O 014 --   Al 003               0.42        1.85041
   O 010 --   Al 001               0.42        1.85041
   O 011 --   Al 002               0.42        1.86184
   O 015 --   Al 004               0.42        1.86184
   O 012 --   Al 001               0.42        1.86184
   O 016 --   Al 003               0.42        1.86184
   O 003 --   Al 003               0.33        1.92136
   O 007 --   Al 001               0.33        1.92136
   O 008 --   Al 002               0.33        1.92136
   O 004 --   Al 004               0.33        1.92136
   O 005 --   Al 001               0.33        1.92680
   O 001 --   Al 003               0.33        1.92680
   O 006 --   Al 002               0.33        1.92680
   O 002 --   Al 004               0.33        1.92680
   O 002 --   Al 002               0.31        1.98510
   O 006 --   Al 004               0.31        1.98510
   O 001 --   Al 001               0.31        1.98510
   O 005 --   Al 003               0.31        1.98510
   O 007 --   Al 003               0.31        2.00126
   O 003 --   Al 001               0.31        2.00126
   O 008 --   Al 004               0.31        2.00126
   O 004 --   Al 002               0.31        2.00126
   O 003 --   Na 001              -0.02        2.35075
   O 007 --   Na 003              -0.02        2.35075
   O 008 --   Na 004              -0.02        2.35075
   O 004 --   Na 002              -0.02        2.35075
   O 019 --   Na 002              -0.04        2.35786
   O 023 --   Na 004              -0.04        2.35786
   O 024 --   Na 003              -0.04        2.35786
   O 020 --   Na 001              -0.04        2.35786
   O 001 --   Na 001              -0.02        2.36023
   O 005 --   Na 003              -0.02        2.36023
   O 006 --   Na 004              -0.02        2.36023
   O 002 --   Na 002              -0.02        2.36023
   O 017 --   Na 002              -0.04        2.37266
   O 021 --   Na 004              -0.04        2.37266
   O 018 --   Na 001              -0.04        2.37266
   O 022 --   Na 003              -0.04        2.37266
   O 012 --   Na 003              -0.06        2.37330
   O 016 --   Na 001              -0.06        2.37330
   O 015 --   Na 002              -0.06        2.37330
   O 011 --   Na 004              -0.06        2.37330
   O 009 --   Na 004              -0.06        2.38261
   O 013 --   Na 002              -0.06        2.38261
   O 014 --   Na 001              -0.06        2.38261
   O 010 --   Na 003              -0.06        2.38261
   O 002 --    O 006              -0.11        2.46802
   O 001 --    O 005              -0.11        2.46802
   O 003 --    O 007              -0.10        2.48410
   O 004 --    O 008              -0.10        2.48410
   O 020 --    O 022              -0.18        2.58220
   O 018 --    O 024              -0.18        2.58220
   O 019 --    O 021              -0.18        2.58220
   O 017 --    O 023              -0.18        2.58220
   O 010 --    O 024              -0.10        2.58727
   O 014 --    O 020              -0.10        2.58727
   O 013 --    O 019              -0.10        2.58727
   O 009 --    O 023              -0.10        2.58727
   O 011 --    O 021              -0.10        2.58805
   O 015 --    O 017              -0.10        2.58805
   O 016 --    O 018              -0.10        2.58805
   O 012 --    O 022              -0.10        2.58805
   O 008 --    O 018              -0.08        2.63170
   O 004 --    O 022              -0.08        2.63170
   O 003 --    O 021              -0.08        2.63170
   O 007 --    O 017              -0.08        2.63170
   O 005 --    O 019              -0.08        2.63650
   O 001 --    O 023              -0.08        2.63650
   O 002 --    O 024              -0.08        2.63650
   O 006 --    O 020              -0.08        2.63650
   O 014 --    O 022              -0.09        2.64142
   O 010 --    O 018              -0.09        2.64142
   O 013 --    O 021              -0.09        2.64142
   O 009 --    O 017              -0.09        2.64142
   O 015 --    O 023              -0.09        2.64176
   O 011 --    O 019              -0.09        2.64176
   O 016 --    O 024              -0.09        2.64176
   O 012 --    O 020              -0.09        2.64176
   O 008 --    O 024              -0.08        2.64423
   O 004 --    O 020              -0.08        2.64423
   O 007 --    O 023              -0.08        2.64423
   O 003 --    O 019              -0.08        2.64423
   O 006 --    O 022              -0.08        2.64983
   O 002 --    O 018              -0.08        2.64983
   O 005 --    O 021              -0.08        2.64983
   O 001 --    O 017              -0.08        2.64983
   O 006 --    O 009              -0.08        2.67083
   O 002 --    O 013              -0.08        2.67083
   O 001 --    O 014              -0.08        2.67083
   O 005 --    O 010              -0.08        2.67083
   O 003 --    O 016              -0.08        2.67192
   O 007 --    O 012              -0.08        2.67192
   O 008 --    O 011              -0.08        2.67192
   O 004 --    O 015              -0.08        2.67192
   O 021 --   Na 002              -0.01        2.67349
   O 017 --   Na 004              -0.01        2.67349
   O 018 --   Na 003              -0.01        2.67349
   O 022 --   Na 001              -0.01        2.67349
   O 023 --   Na 002              -0.02        2.69484
   O 019 --   Na 004              -0.02        2.69484
   O 020 --   Na 003              -0.02        2.69484
   O 024 --   Na 001              -0.02        2.69484
   O 001 --    O 003              -0.05        2.70118
   O 005 --    O 007              -0.05        2.70118
   O 002 --    O 004              -0.05        2.70118
   O 006 --    O 008              -0.05        2.70118
   O 004 --    O 009              -0.05        2.70663
   O 008 --    O 013              -0.05        2.70663
   O 007 --    O 014              -0.05        2.70663
   O 003 --    O 010              -0.05        2.70663
   O 006 --    O 015              -0.05        2.71069
   O 002 --    O 011              -0.05        2.71069
   O 001 --    O 012              -0.05        2.71069
   O 005 --    O 016              -0.05        2.71069
   O 020 --    O 024              -0.04        2.75025
   O 019 --    O 023              -0.04        2.75025
   O 018 --    O 022              -0.04        2.75165
   O 017 --    O 021              -0.04        2.75165
   O 002 --    O 010              -0.06        2.76460
   O 006 --    O 014              -0.06        2.76460
   O 005 --    O 013              -0.06        2.76460
   O 001 --    O 009              -0.06        2.76460
   O 008 --    O 016              -0.06        2.77951
   O 004 --    O 012              -0.06        2.77951
   O 003 --    O 011              -0.06        2.77951
   O 007 --    O 015              -0.06        2.77951
   O 007 --    O 010              -0.04        2.78854
   O 003 --    O 014              -0.04        2.78854
   O 008 --    O 009              -0.04        2.78854
   O 004 --    O 013              -0.04        2.78854
   O 009 --    O 011              -0.05        2.80857
   O 013 --    O 015              -0.05        2.80857
   O 010 --    O 012              -0.05        2.80857
   O 014 --    O 016              -0.05        2.80857
   O 005 --    O 012              -0.04        2.81136
   O 001 --    O 016              -0.04        2.81136
   O 006 --    O 011              -0.04        2.81136
   O 002 --    O 015              -0.04        2.81136
   O 016 --    O 019              -0.03        2.88082
   O 012 --    O 023              -0.03        2.88082
   O 015 --    O 020              -0.03        2.88082
   O 011 --    O 024              -0.03        2.88082
   O 002 --    O 008              -0.06        2.89661
   O 004 --    O 006              -0.06        2.89661
   O 001 --    O 007              -0.06        2.89661
   O 003 --    O 005              -0.06        2.89661
   O 014 --    O 017              -0.03        2.89829
   O 010 --    O 021              -0.03        2.89829
   O 013 --    O 018              -0.03        2.89829
   O 009 --    O 022              -0.03        2.89829
============================================================
 
 
Writing model to jadeite_4_30_GPa_cij__2__4.check
 
Writing analysis data to jadeite_4_30_GPa_cij__2__4.castep_bin
Initialisation time =      4.04 s
Calculation time    =   3511.90 s
Finalisation time   =      1.30 s
Total time          =   3517.24 s
Peak Memory Use     = 282644 kB
