 +-------------------------------------------------+
 |                                                 |
 |      CCC   AA    SSS  TTTTT  EEEEE  PPPP        |
 |     C     A  A  S       T    E      P   P       |
 |     C     AAAA   SS     T    EEE    PPPP        |
 |     C     A  A     S    T    E      P           |
 |      CCC  A  A  SSS     T    EEEEE  P           |
 |                                                 |
 +-------------------------------------------------+
 |                                                 |
 | Welcome to Academic Release CASTEP version 5.02 |
 | Ab Initio Total Energy Program                  |
 |                                                 |
 | Authors:                                        |
 | M. Segall, M. Probert, C. Pickard, P. Hasnip,   |
 | S. Clark, K. Refson, M. Payne                   |
 |                                                 |
 | Contributors:                                   |
 | P. Lindan, P. Haynes, J. White, V. Milman,      |
 | N. Govind, M. Gibson, P. Tulip, V. Cocula,      |
 | B. Montanari, D. Quigley, M. Glover,            |
 | L. Bernasconi, A. Perlov, M. Plummer            |
 |                                                 |
 | Copyright (c) 2000 - 2009                       |
 |                                                 |
 |     Distributed under the terms of an           |
 |     Agreement between the United Kingdom        |
 |     Car-Parrinello (UKCP) Consortium,           |
 |     Daresbury Laboratory and Accelrys, Inc.     |
 |                                                 |
 | Please cite                                     |
 |                                                 |
 |     "First principles methods using CASTEP"     |
 |                                                 |
 |         Zeitschrift fuer Kristallographie       |
 |           220(5-6) pp. 567-570 (2005)           |
 |                                                 |
 | S. J. Clark, M. D. Segall, C. J. Pickard,       |
 | P. J. Hasnip, M. J. Probert, K. Refson,         |
 | M. C. Payne                                     |
 |                                                 |
 |       in all publications arising from          |
 |              your use of CASTEP                 |
 |                                                 |
 +-------------------------------------------------+
 
 
 Pseudo atomic calculation performed for O 2s2 2p4
 
 Converged in 36 iterations to a total energy of -429.6485 eV
 
 
 Pseudo atomic calculation performed for Na 2s2 2p6 3s1
 
 Converged in 33 iterations to a total energy of -1302.8467 eV
 
 
 Pseudo atomic calculation performed for Al 3s2 3p1
 
 Converged in 20 iterations to a total energy of -52.7392 eV
 
 
 Pseudo atomic calculation performed for Si 3s2 3p2
 
 Converged in 21 iterations to a total energy of -101.9044 eV
 
Calculation parallelised over   36 nodes.
K-points are distributed over    3 groups, each containing   12 nodes.

 ************************************ Title ************************************
 

 ***************************** General Parameters ******************************
  
 output verbosity                               : normal  (1)
 write checkpoint data to                       : jadeite_4_30_GPa_cij__4__2.check
 type of calculation                            : geometry optimization
 stress calculation                             : on
 density difference calculation                 : off
 electron localisation func (ELF) calculation   : off
 Hirshfeld analysis                             : off
 unlimited duration calculation
 timing information                             : on
 memory usage estimate                          : on
 write final potential to formatted file        : off
 write final density to formatted file          : off
  
 output         length unit                     : A
 output           mass unit                     : amu
 output           time unit                     : ps
 output         charge unit                     : e
 output         energy unit                     : eV
 output          force unit                     : eV/A
 output       velocity unit                     : A/ps
 output       pressure unit                     : GPa
 output     inv_length unit                     : 1/A
 output      frequency unit                     : cm-1
 output force constant unit                     : eV/A**2
 output         volume unit                     : A**3
 output   IR intensity unit                     : (D/A)**2/amu
 output         dipole unit                     : D
 output         efield unit                     : eV/A/e
  
 wavefunctions paging                           : none
 data distribution                              : optimal for this architecture
 optimization strategy                          : maximize speed(+++)

 *********************** Exchange-Correlation Parameters ***********************
  
 using functional                               : Perdew Burke Ernzerhof
 Divergence correction                          : off
 DFT+D: Semi-empirical dispersion correction    : off

 ************************* Pseudopotential Parameters **************************
  
 pseudopotential representation                 : reciprocal space
 <beta|phi> representation                      : reciprocal space

 **************************** Basis Set Parameters *****************************
  
 plane wave basis set cut-off                   :   700.0000   eV
 finite basis set correction                    : none

 **************************** Electronic Parameters ****************************
  
 number of  electrons                           :  224.0    
 net charge of system                           :  0.000    
 net spin   of system                           :  0.000    
 number of  up  spins                           :  112.0    
 number of down spins                           :  112.0    
 treating system as non-spin-polarized
 number of bands                                :        112

 ********************* Electronic Minimization Parameters **********************
  
 Method: Treating system as non-metallic,
         and number of  SD  steps               :          1
         and number of  CG  steps               :          4
  
 total energy / atom convergence tol.           : 0.1000E-07   eV
 max force / atom convergence tol.              : ignored
 convergence tolerance window                   :          3   cycles
 max. number of SCF cycles                      :        100

 *********************** Population Analysis Parameters ************************
  
 Population analysis with cutoff                :  3.000       A

 ********************** Geometry Optimization Parameters ***********************
  
 optimization method                            : BFGS
 variable cell method                           : fixed basis quality
 max. number of steps                           :        300
 estimated bulk modulus                         :  500.0       GPa
 estimated <frequency>                          :  1668.       cm-1
 line minimiser tolerance                       :     0.4000
 total energy convergence tolerance             : 0.2000E-06   eV/atom
        max ionic |force| tolerance             : 0.1000E-02   eV/A
 max ionic |displacement| tolerance             : 0.1000E-02   A
   max |stress component| tolerance             : 0.1000E-02   GPa
 convergence tolerance window                   :          2   steps
 backup results every                           :          1   steps

 *******************************************************************************
  
 
                           -------------------------------
                                      Unit Cell
                           -------------------------------
        Real Lattice(A)                      Reciprocal Lattice(1/A)
   8.9813393   0.0000000  -2.8624166        0.6995822   0.0000000   0.0000000
   0.0000000   8.5603493   0.0000000        0.0000000   0.7339870   0.0000000
   0.0000000   0.0000000   5.2199179        0.3836259   0.0000000   1.2036943
 
                       Lattice parameters(A)       Cell Angles
                    a =    9.426446          alpha =   90.000000
                    b =    8.560349          beta  =  107.677449
                    c =    5.219918          gamma =   90.000000
 
                       Current cell volume =  401.325043       A**3
 
                           -------------------------------
                                     Cell Contents
                           -------------------------------
                         Total number of ions in cell =   40
                      Total number of species in cell =    4
                        Max number of any one species =   24
 
            xxxxxxxxxxxxxxxxxxxxxxxxxxxxxxxxxxxxxxxxxxxxxxxxxxxxxxxxxxxx
            x  Element    Atom        Fractional coordinates of atoms  x
            x            Number           u          v          w      x
            x----------------------------------------------------------x
            x  O            1         0.109277   0.076953   0.129205   x
            x  O            2         0.609279   0.576951   0.129208   x
            x  O            3         0.890723   0.076953   0.370795   x
            x  O            4         0.390721   0.576951   0.370792   x
            x  O            5         0.890723   0.923047   0.870795   x
            x  O            6         0.390721   0.423048   0.870792   x
            x  O            7         0.109277   0.923047   0.629205   x
            x  O            8         0.609279   0.423048   0.629208   x
            x  O            9         0.361047   0.263746   0.295383   x
            x  O           10         0.861046   0.763747   0.295382   x
            x  O           11         0.638953   0.263746   0.204617   x
            x  O           12         0.138954   0.763747   0.204618   x
            x  O           13         0.638953   0.736253   0.704617   x
            x  O           14         0.138954   0.236253   0.704618   x
            x  O           15         0.361047   0.736253   0.795383   x
            x  O           16         0.861046   0.236253   0.795382   x
            x  O           17         0.354029   0.008469   1.005059   x
            x  O           18         0.854032   0.508466   1.005069   x
            x  O           19         0.645971   0.008469   0.494941   x
            x  O           20         0.145968   0.508466   0.494931   x
            x  O           21         0.645971   0.991531  -0.005059   x
            x  O           22         0.145968   0.491534  -0.005069   x
            x  O           23         0.354029   0.991531   0.505059   x
            x  O           24         0.854032   0.491534   0.505069   x
            x  Na           1         0.000000   0.301230   0.250000   x
            x  Na           2         0.500000   0.801235   0.250000   x
            x  Na           3         0.000000   0.698770   0.750000   x
            x  Na           4         0.500000   0.198765   0.750000   x
            x  Al           1         0.000000   0.906276   0.250000   x
            x  Al           2         0.500000   0.406276   0.250000   x
            x  Al           3         0.000000   0.093724   0.750000   x
            x  Al           4         0.500000   0.593723   0.750000   x
            x  Si           1         0.290869   0.093825   0.228100   x
            x  Si           2         0.790871   0.593824   0.228106   x
            x  Si           3         0.709131   0.093825   0.271900   x
            x  Si           4         0.209129   0.593824   0.271894   x
            x  Si           5         0.709131   0.906175   0.771900   x
            x  Si           6         0.209129   0.406176   0.771894   x
            x  Si           7         0.290869   0.906175   0.728100   x
            x  Si           8         0.790871   0.406176   0.728106   x
            xxxxxxxxxxxxxxxxxxxxxxxxxxxxxxxxxxxxxxxxxxxxxxxxxxxxxxxxxxxx
 
 
                         No user defined ionic velocities
 
                           -------------------------------
                                   Details of Species
                           -------------------------------
 
                               Mass of species in AMU
                                    O   15.9994000
                                    Na   22.9897700
                                    Al   26.9815400
                                    Si   28.0855000
 
                          Electric Quadrupole Moment (Barn)
                                    O   -0.0255800 Isotope 17
                                    Na    0.1040000 Isotope 23
                                    Al    0.1466000 Isotope 27
                                    Si    1.0000000 No Isotope Defined
 
                          Files used for pseudopotentials:
                                    O O_00PBE.usp
                                    Na Na_00PBE.usp
                                    Al Al_00PBE.usp
                                    Si Si_00PBE.usp
 
                           -------------------------------
                              k-Points For BZ Sampling
                           -------------------------------
                       MP grid size for SCF calculation is  2  2  3
                         Number of kpoints used = 3
 
             +++++++++++++++++++++++++++++++++++++++++++++++++++++++
             +  Number       Fractional coordinates        Weight  +
             +-----------------------------------------------------+
             +     1  -0.250000  -0.250000   0.333333   0.3333333  +
             +     2   0.250000   0.250000   0.000000   0.3333333  +
             +     3   0.250000   0.250000   0.333333   0.3333333  +
             +++++++++++++++++++++++++++++++++++++++++++++++++++++++
 
                           -------------------------------
                               Symmetry and Constraints
                           -------------------------------
 
                      Number of symmetry operations   = 4
                      Number of ionic constraints     = 3
                      Maximum deviation from symmetry = 0.115905E-14     ANG
               Point group of crystal =     5: C2h, 2/m, 2/m
           Set iprint > 1 for details on symmetry rotations/translations
 
                          Centre of mass is constrained
             Set iprint > 1 for details of linear ionic constraints
 
                         Number of cell constraints= 6
                         Cell constraints are:  0 0 0 0 0 0
 
                         External pressure/stress (GPa)
                          4.30000   0.00000   0.00000
                                    4.30000   0.00000
                                              4.30000
  
+---------------- MEMORY AND SCRATCH DISK ESTIMATES PER NODE -----------------+
|                                                     Memory          Disk    |
| Model and support data                               60.0 MB         0.0 MB |
| Electronic energy minimisation requirements          16.7 MB         0.0 MB |
|                                               ----------------------------- |
| Approx. total storage required per node              76.7 MB         0.0 MB |
|                                                                             |
| Requirements will fluctuate during execution and may exceed these estimates |
+-----------------------------------------------------------------------------+
------------------------------------------------------------------------ <-- SCF
SCF loop      Energy                           Energy gain       Timer   <-- SCF
                                               per atom          (sec)   <-- SCF
------------------------------------------------------------------------ <-- SCF
Initial  -1.63623704E+003                                          5.22  <-- SCF
      1  -1.65210476E+004                    3.72120265E+002      18.07  <-- SCF
      2  -1.68153763E+004                    7.35821687E+000      31.22  <-- SCF
      3  -1.68428291E+004                    6.86318881E-001      44.72  <-- SCF
      4  -1.68460486E+004                    8.04892693E-002      57.01  <-- SCF
      5  -1.68461118E+004                    1.57926195E-003      69.48  <-- SCF
      6  -1.68461129E+004                    2.76478594E-005      81.98  <-- SCF
      7  -1.68461130E+004                    7.53484428E-007      94.14  <-- SCF
      8  -1.68461130E+004                    2.44662440E-008     106.24  <-- SCF
      9  -1.68461130E+004                    8.09975606E-010     118.45  <-- SCF
     10  -1.68461130E+004                    2.71461317E-011     132.26  <-- SCF
------------------------------------------------------------------------ <-- SCF
 
Final energy =  -16846.11295246     eV
(energy not corrected for finite basis set)
 
 
Writing model to jadeite_4_30_GPa_cij__4__2.check
 
+---------------- MEMORY AND SCRATCH DISK ESTIMATES PER NODE -----------------+
|                                                     Memory          Disk    |
| Model and support data                               53.1 MB         0.0 MB |
| Geometry minimisation requirements                   19.5 MB         0.0 MB |
|                                               ----------------------------- |
| Approx. total storage required per node              72.5 MB         0.0 MB |
|                                                                             |
| Requirements will fluctuate during execution and may exceed these estimates |
+-----------------------------------------------------------------------------+
 
 
 *********************************** Forces ***********************************
 *                                                                            *
 *                        Cartesian components (eV/A)                         *
 * -------------------------------------------------------------------------- *
 *                   x                    y                    z              *
 *                                                                            *
 * O         1      0.00541              0.00554             -0.00806         *
 * O         2      0.00525              0.00559             -0.00811         *
 * O         3     -0.00541              0.00554              0.00806         *
 * O         4     -0.00525              0.00559              0.00811         *
 * O         5     -0.00541             -0.00554              0.00806         *
 * O         6     -0.00525             -0.00559              0.00811         *
 * O         7      0.00541             -0.00554             -0.00806         *
 * O         8      0.00525             -0.00559             -0.00811         *
 * O         9      0.01413              0.01270             -0.00984         *
 * O        10      0.01426              0.01277             -0.00984         *
 * O        11     -0.01413              0.01270              0.00984         *
 * O        12     -0.01426              0.01277              0.00984         *
 * O        13     -0.01413             -0.01270              0.00984         *
 * O        14     -0.01426             -0.01277              0.00984         *
 * O        15      0.01413             -0.01270             -0.00984         *
 * O        16      0.01426             -0.01277             -0.00984         *
 * O        17     -0.00262              0.03367              0.06442         *
 * O        18     -0.00268              0.03374              0.06438         *
 * O        19      0.00262              0.03367             -0.06442         *
 * O        20      0.00268              0.03374             -0.06438         *
 * O        21      0.00262             -0.03367             -0.06442         *
 * O        22      0.00268             -0.03374             -0.06438         *
 * O        23     -0.00262             -0.03367              0.06442         *
 * O        24     -0.00268             -0.03374              0.06438         *
 * Na        1      0.00000             -0.00737              0.00000         *
 * Na        2      0.00000             -0.00749              0.00000         *
 * Na        3      0.00000              0.00737              0.00000         *
 * Na        4      0.00000              0.00749              0.00000         *
 * Al        1      0.00000             -0.01577              0.00000         *
 * Al        2      0.00000             -0.01567              0.00000         *
 * Al        3      0.00000              0.01577              0.00000         *
 * Al        4      0.00000              0.01567              0.00000         *
 * Si        1      0.00387             -0.00566             -0.05167         *
 * Si        2      0.00366             -0.00562             -0.05169         *
 * Si        3     -0.00387             -0.00566              0.05167         *
 * Si        4     -0.00366             -0.00562              0.05169         *
 * Si        5     -0.00387              0.00566              0.05167         *
 * Si        6     -0.00366              0.00562              0.05169         *
 * Si        7      0.00387              0.00566             -0.05167         *
 * Si        8      0.00366              0.00562             -0.05169         *
 *                                                                            *
 ******************************************************************************
 BFGS: finished iteration     0 with enthalpy= -1.68353420E+004 eV
  
 +-----------+-----------------+-----------------+------------+-----+ <-- BFGS
 | Parameter |      value      |    tolerance    |    units   | OK? | <-- BFGS
 +-----------+-----------------+-----------------+------------+-----+ <-- BFGS
 |  dE/ion   |   0.000000E+000 |   2.000000E-007 |         eV | No  | <-- BFGS
 |  |F|max   |   7.274001E-002 |   1.000000E-003 |       eV/A | No  | <-- BFGS
 |  |dR|max  |   0.000000E+000 |   1.000000E-003 |          A | No  | <-- BFGS
 +-----------+-----------------+-----------------+------------+-----+ <-- BFGS
  

================================================================================
 Starting BFGS iteration          1 ...
================================================================================
 
Writing model to jadeite_4_30_GPa_cij__4__2.check
  
 +------------+-------------+-------------+-----------------+ <-- min BFGS
 |    Step    |   lambda    |   F.delta   |    enthalpy     | <-- min BFGS
 +------------+-------------+-------------+-----------------+ <-- min BFGS
 |  previous  |    0.000000 |    0.000012 |   -16835.341994 | <-- min BFGS
 +------------+-------------+-------------+-----------------+ <-- min BFGS
  

--------------------------------------------------------------------------------
 BFGS: starting iteration         1 with trial guess (lambda=  1.000000)
--------------------------------------------------------------------------------
 
                           -------------------------------
                                     Cell Contents
                           -------------------------------
 
            xxxxxxxxxxxxxxxxxxxxxxxxxxxxxxxxxxxxxxxxxxxxxxxxxxxxxxxxxxxx
            x  Element    Atom        Fractional coordinates of atoms  x
            x            Number           u          v          w      x
            x----------------------------------------------------------x
            x  O            1         0.109280   0.076956   0.129199   x
            x  O            2         0.609282   0.576955   0.129202   x
            x  O            3         0.890720   0.076956   0.370801   x
            x  O            4         0.390718   0.576955   0.370798   x
            x  O            5         0.890720   0.923044   0.870801   x
            x  O            6         0.390718   0.423045   0.870798   x
            x  O            7         0.109280   0.923044   0.629199   x
            x  O            8         0.609282   0.423045   0.629202   x
            x  O            9         0.361055   0.263754   0.295378   x
            x  O           10         0.861054   0.763754   0.295377   x
            x  O           11         0.638945   0.263754   0.204622   x
            x  O           12         0.138946   0.763754   0.204623   x
            x  O           13         0.638945   0.736246   0.704622   x
            x  O           14         0.138946   0.236246   0.704623   x
            x  O           15         0.361055   0.736246   0.795378   x
            x  O           16         0.861054   0.236246   0.795377   x
            x  O           17         0.354028   0.008489   1.005118   x
            x  O           18         0.854031   0.508485   1.005128   x
            x  O           19         0.645972   0.008489   0.494882   x
            x  O           20         0.145969   0.508485   0.494872   x
            x  O           21         0.645972   0.991511  -0.005118   x
            x  O           22         0.145969   0.491515  -0.005128   x
            x  O           23         0.354028   0.991511   0.505118   x
            x  O           24         0.854031   0.491515   0.505128   x
            x  Na           1         0.000000   0.301226   0.250000   x
            x  Na           2         0.500000   0.801230   0.250000   x
            x  Na           3         0.000000   0.698774   0.750000   x
            x  Na           4         0.500000   0.198770   0.750000   x
            x  Al           1         0.000000   0.906268   0.250000   x
            x  Al           2         0.500000   0.406268   0.250000   x
            x  Al           3         0.000000   0.093732   0.750000   x
            x  Al           4         0.500000   0.593732   0.750000   x
            x  Si           1         0.290871   0.093821   0.228053   x
            x  Si           2         0.790873   0.593820   0.228059   x
            x  Si           3         0.709129   0.093821   0.271947   x
            x  Si           4         0.209127   0.593820   0.271941   x
            x  Si           5         0.709129   0.906179   0.771947   x
            x  Si           6         0.209127   0.406180   0.771941   x
            x  Si           7         0.290871   0.906179   0.728053   x
            x  Si           8         0.790873   0.406180   0.728059   x
            xxxxxxxxxxxxxxxxxxxxxxxxxxxxxxxxxxxxxxxxxxxxxxxxxxxxxxxxxxxx
 
 
------------------------------------------------------------------------ <-- SCF
SCF loop      Energy                           Energy gain       Timer   <-- SCF
                                               per atom          (sec)   <-- SCF
------------------------------------------------------------------------ <-- SCF
Initial  -1.68461097E+004                                        139.15  <-- SCF
      1  -1.68461132E+004                    8.93474847E-005     151.49  <-- SCF
      2  -1.68461132E+004                    2.08094048E-008     163.76  <-- SCF
      3  -1.68461132E+004                    3.33874219E-010     175.98  <-- SCF
      4  -1.68461132E+004                    7.96595889E-012     187.79  <-- SCF
------------------------------------------------------------------------ <-- SCF
 
Final energy =  -16846.11323905     eV
(energy not corrected for finite basis set)
 
 
 *********************************** Forces ***********************************
 *                                                                            *
 *                        Cartesian components (eV/A)                         *
 * -------------------------------------------------------------------------- *
 *                   x                    y                    z              *
 *                                                                            *
 * O         1      0.00527              0.00516             -0.00715         *
 * O         2      0.00512              0.00521             -0.00718         *
 * O         3     -0.00527              0.00516              0.00715         *
 * O         4     -0.00512              0.00521              0.00718         *
 * O         5     -0.00527             -0.00516              0.00715         *
 * O         6     -0.00512             -0.00521              0.00718         *
 * O         7      0.00527             -0.00516             -0.00715         *
 * O         8      0.00512             -0.00521             -0.00718         *
 * O         9      0.01150              0.00791             -0.00844         *
 * O        10      0.01160              0.00795             -0.00843         *
 * O        11     -0.01150              0.00791              0.00844         *
 * O        12     -0.01160              0.00795              0.00843         *
 * O        13     -0.01150             -0.00791              0.00844         *
 * O        14     -0.01160             -0.00795              0.00843         *
 * O        15      0.01150             -0.00791             -0.00844         *
 * O        16      0.01160             -0.00795             -0.00843         *
 * O        17     -0.00113              0.02136              0.04580         *
 * O        18     -0.00121              0.02143              0.04576         *
 * O        19      0.00113              0.02136             -0.04580         *
 * O        20      0.00121              0.02143             -0.04576         *
 * O        21      0.00113             -0.02136             -0.04580         *
 * O        22      0.00121             -0.02143             -0.04576         *
 * O        23     -0.00113             -0.02136              0.04580         *
 * O        24     -0.00121             -0.02143              0.04576         *
 * Na        1      0.00000             -0.00756              0.00000         *
 * Na        2      0.00000             -0.00767              0.00000         *
 * Na        3      0.00000              0.00756              0.00000         *
 * Na        4      0.00000              0.00767              0.00000         *
 * Al        1      0.00000             -0.01387              0.00000         *
 * Al        2      0.00000             -0.01378              0.00000         *
 * Al        3      0.00000              0.01387              0.00000         *
 * Al        4      0.00000              0.01378              0.00000         *
 * Si        1      0.00396             -0.00186             -0.03430         *
 * Si        2      0.00380             -0.00181             -0.03432         *
 * Si        3     -0.00396             -0.00186              0.03430         *
 * Si        4     -0.00380             -0.00181              0.03432         *
 * Si        5     -0.00396              0.00186              0.03430         *
 * Si        6     -0.00380              0.00181              0.03432         *
 * Si        7      0.00396              0.00186             -0.03430         *
 * Si        8      0.00380              0.00181             -0.03432         *
 *                                                                            *
 ******************************************************************************
  
 +------------+-------------+-------------+-----------------+ <-- min BFGS
 |    Step    |   lambda    |   F.delta   |    enthalpy     | <-- min BFGS
 +------------+-------------+-------------+-----------------+ <-- min BFGS
 |  previous  |    0.000000 |    0.000012 |   -16835.341994 | <-- min BFGS
 | trial step |    1.000000 |    0.000009 |   -16835.342281 | <-- min BFGS
 +------------+-------------+-------------+-----------------+ <-- min BFGS
  

--------------------------------------------------------------------------------
 BFGS: improving iteration         1 with line minimization (lambda=  3.269597)
--------------------------------------------------------------------------------
 
                           -------------------------------
                                     Cell Contents
                           -------------------------------
 
            xxxxxxxxxxxxxxxxxxxxxxxxxxxxxxxxxxxxxxxxxxxxxxxxxxxxxxxxxxxx
            x  Element    Atom        Fractional coordinates of atoms  x
            x            Number           u          v          w      x
            x----------------------------------------------------------x
            x  O            1         0.109287   0.076963   0.129186   x
            x  O            2         0.609288   0.576962   0.129189   x
            x  O            3         0.890713   0.076963   0.370814   x
            x  O            4         0.390712   0.576962   0.370811   x
            x  O            5         0.890713   0.923037   0.870814   x
            x  O            6         0.390712   0.423038   0.870811   x
            x  O            7         0.109287   0.923037   0.629186   x
            x  O            8         0.609288   0.423038   0.629189   x
            x  O            9         0.361072   0.263770   0.295367   x
            x  O           10         0.861071   0.763771   0.295366   x
            x  O           11         0.638928   0.263770   0.204633   x
            x  O           12         0.138929   0.763771   0.204634   x
            x  O           13         0.638928   0.736230   0.704633   x
            x  O           14         0.138929   0.236229   0.704634   x
            x  O           15         0.361072   0.736230   0.795367   x
            x  O           16         0.861071   0.236229   0.795366   x
            x  O           17         0.354024   0.008532   1.005252   x
            x  O           18         0.854027   0.508528   1.005261   x
            x  O           19         0.645976   0.008532   0.494748   x
            x  O           20         0.145973   0.508528   0.494739   x
            x  O           21         0.645976   0.991468  -0.005252   x
            x  O           22         0.145973   0.491472  -0.005261   x
            x  O           23         0.354024   0.991468   0.505252   x
            x  O           24         0.854027   0.491472   0.505261   x
            x  Na           1         0.000000   0.301216   0.250000   x
            x  Na           2         0.500000   0.801221   0.250000   x
            x  Na           3         0.000000   0.698784   0.750000   x
            x  Na           4         0.500000   0.198779   0.750000   x
            x  Al           1         0.000000   0.906247   0.250000   x
            x  Al           2         0.500000   0.406248   0.250000   x
            x  Al           3         0.000000   0.093753   0.750000   x
            x  Al           4         0.500000   0.593752   0.750000   x
            x  Si           1         0.290876   0.093814   0.227947   x
            x  Si           2         0.790877   0.593813   0.227953   x
            x  Si           3         0.709124   0.093814   0.272053   x
            x  Si           4         0.209123   0.593813   0.272047   x
            x  Si           5         0.709124   0.906186   0.772053   x
            x  Si           6         0.209123   0.406187   0.772047   x
            x  Si           7         0.290876   0.906186   0.727947   x
            x  Si           8         0.790877   0.406187   0.727953   x
            xxxxxxxxxxxxxxxxxxxxxxxxxxxxxxxxxxxxxxxxxxxxxxxxxxxxxxxxxxxx
 
 
------------------------------------------------------------------------ <-- SCF
SCF loop      Energy                           Energy gain       Timer   <-- SCF
                                               per atom          (sec)   <-- SCF
------------------------------------------------------------------------ <-- SCF
Initial  -1.68461079E+004                                        193.28  <-- SCF
      1  -1.68461135E+004                    1.40228964E-004     205.51  <-- SCF
      2  -1.68461135E+004                    4.94661298E-008     218.12  <-- SCF
      3  -1.68461135E+004                    8.71924471E-010     230.90  <-- SCF
      4  -1.68461135E+004                    1.96442093E-011     244.01  <-- SCF
------------------------------------------------------------------------ <-- SCF
 
Final energy =  -16846.11350532     eV
(energy not corrected for finite basis set)
 
 
 *********************************** Forces ***********************************
 *                                                                            *
 *                        Cartesian components (eV/A)                         *
 * -------------------------------------------------------------------------- *
 *                   x                    y                    z              *
 *                                                                            *
 * O         1      0.00497              0.00428             -0.00505         *
 * O         2      0.00482              0.00433             -0.00509         *
 * O         3     -0.00497              0.00428              0.00505         *
 * O         4     -0.00482              0.00433              0.00509         *
 * O         5     -0.00497             -0.00428              0.00505         *
 * O         6     -0.00482             -0.00433              0.00509         *
 * O         7      0.00497             -0.00428             -0.00505         *
 * O         8      0.00482             -0.00433             -0.00509         *
 * O         9      0.00552             -0.00295             -0.00525         *
 * O        10      0.00556             -0.00300             -0.00523         *
 * O        11     -0.00552             -0.00295              0.00525         *
 * O        12     -0.00556             -0.00300              0.00523         *
 * O        13     -0.00552              0.00295              0.00525         *
 * O        14     -0.00556              0.00300              0.00523         *
 * O        15      0.00552              0.00295             -0.00525         *
 * O        16      0.00556              0.00300             -0.00523         *
 * O        17      0.00237             -0.00658              0.00349         *
 * O        18      0.00226             -0.00653              0.00344         *
 * O        19     -0.00237             -0.00658             -0.00349         *
 * O        20     -0.00226             -0.00653             -0.00344         *
 * O        21     -0.00237              0.00658             -0.00349         *
 * O        22     -0.00226              0.00653             -0.00344         *
 * O        23      0.00237              0.00658              0.00349         *
 * O        24      0.00226              0.00653              0.00344         *
 * Na        1      0.00000             -0.00796              0.00000         *
 * Na        2      0.00000             -0.00806              0.00000         *
 * Na        3      0.00000              0.00796              0.00000         *
 * Na        4      0.00000              0.00806              0.00000         *
 * Al        1      0.00000             -0.00955              0.00000         *
 * Al        2      0.00000             -0.00951              0.00000         *
 * Al        3      0.00000              0.00955              0.00000         *
 * Al        4      0.00000              0.00951              0.00000         *
 * Si        1      0.00407              0.00690              0.00518         *
 * Si        2      0.00400              0.00699              0.00517         *
 * Si        3     -0.00407              0.00690             -0.00518         *
 * Si        4     -0.00400              0.00699             -0.00517         *
 * Si        5     -0.00407             -0.00690             -0.00518         *
 * Si        6     -0.00400             -0.00699             -0.00517         *
 * Si        7      0.00407             -0.00690              0.00518         *
 * Si        8      0.00400             -0.00699              0.00517         *
 *                                                                            *
 ******************************************************************************
  
 +------------+-------------+-------------+-----------------+ <-- min BFGS
 |    Step    |   lambda    |   F.delta   |    enthalpy     | <-- min BFGS
 +------------+-------------+-------------+-----------------+ <-- min BFGS
 |  previous  |    0.000000 |    0.000012 |   -16835.341994 | <-- min BFGS
 | trial step |    1.000000 |    0.000009 |   -16835.342281 | <-- min BFGS
 |  line step |    3.269597 |    0.000000 |   -16835.342547 | <-- min BFGS
 +------------+-------------+-------------+-----------------+ <-- min BFGS
  
 BFGS: finished iteration     1 with enthalpy= -1.68353425E+004 eV
  
 +-----------+-----------------+-----------------+------------+-----+ <-- BFGS
 | Parameter |      value      |    tolerance    |    units   | OK? | <-- BFGS
 +-----------+-----------------+-----------------+------------+-----+ <-- BFGS
 |  dE/ion   |   1.382165E-005 |   2.000000E-007 |         eV | No  | <-- BFGS
 |  |F|max   |   9.576909E-003 |   1.000000E-003 |       eV/A | No  | <-- BFGS
 |  |dR|max  |   1.150217E-003 |   1.000000E-003 |          A | No  | <-- BFGS
 +-----------+-----------------+-----------------+------------+-----+ <-- BFGS
  

================================================================================
 Starting BFGS iteration          2 ...
================================================================================
 
Writing model to jadeite_4_30_GPa_cij__4__2.check
  
 +------------+-------------+-------------+-----------------+ <-- min BFGS
 |    Step    |   lambda    |   F.delta   |    enthalpy     | <-- min BFGS
 +------------+-------------+-------------+-----------------+ <-- min BFGS
 |  previous  |    0.000000 |    0.000001 |   -16835.342547 | <-- min BFGS
 +------------+-------------+-------------+-----------------+ <-- min BFGS
  

--------------------------------------------------------------------------------
 BFGS: starting iteration         2 with trial guess (lambda=  1.000000)
--------------------------------------------------------------------------------
 
                           -------------------------------
                                     Cell Contents
                           -------------------------------
 
            xxxxxxxxxxxxxxxxxxxxxxxxxxxxxxxxxxxxxxxxxxxxxxxxxxxxxxxxxxxx
            x  Element    Atom        Fractional coordinates of atoms  x
            x            Number           u          v          w      x
            x----------------------------------------------------------x
            x  O            1         0.109289   0.076966   0.129182   x
            x  O            2         0.609291   0.576964   0.129185   x
            x  O            3         0.890711   0.076966   0.370818   x
            x  O            4         0.390709   0.576964   0.370815   x
            x  O            5         0.890711   0.923034   0.870818   x
            x  O            6         0.390709   0.423036   0.870815   x
            x  O            7         0.109289   0.923034   0.629182   x
            x  O            8         0.609291   0.423036   0.629185   x
            x  O            9         0.361075   0.263769   0.295363   x
            x  O           10         0.861074   0.763769   0.295363   x
            x  O           11         0.638925   0.263769   0.204637   x
            x  O           12         0.138926   0.763769   0.204637   x
            x  O           13         0.638925   0.736231   0.704637   x
            x  O           14         0.138926   0.236231   0.704637   x
            x  O           15         0.361075   0.736231   0.795363   x
            x  O           16         0.861074   0.236231   0.795363   x
            x  O           17         0.354026   0.008529   1.005258   x
            x  O           18         0.854028   0.508525   1.005268   x
            x  O           19         0.645974   0.008529   0.494742   x
            x  O           20         0.145972   0.508525   0.494732   x
            x  O           21         0.645974   0.991471  -0.005258   x
            x  O           22         0.145972   0.491475  -0.005268   x
            x  O           23         0.354026   0.991471   0.505258   x
            x  O           24         0.854028   0.491475   0.505268   x
            x  Na           1         0.000000   0.301212   0.250000   x
            x  Na           2         0.500000   0.801216   0.250000   x
            x  Na           3         0.000000   0.698788   0.750000   x
            x  Na           4         0.500000   0.198784   0.750000   x
            x  Al           1         0.000000   0.906242   0.250000   x
            x  Al           2         0.500000   0.406242   0.250000   x
            x  Al           3         0.000000   0.093758   0.750000   x
            x  Al           4         0.500000   0.593758   0.750000   x
            x  Si           1         0.290878   0.093818   0.227951   x
            x  Si           2         0.790880   0.593817   0.227957   x
            x  Si           3         0.709122   0.093818   0.272049   x
            x  Si           4         0.209120   0.593817   0.272043   x
            x  Si           5         0.709122   0.906182   0.772049   x
            x  Si           6         0.209120   0.406183   0.772043   x
            x  Si           7         0.290878   0.906182   0.727951   x
            x  Si           8         0.790880   0.406183   0.727957   x
            xxxxxxxxxxxxxxxxxxxxxxxxxxxxxxxxxxxxxxxxxxxxxxxxxxxxxxxxxxxx
 
 
------------------------------------------------------------------------ <-- SCF
SCF loop      Energy                           Energy gain       Timer   <-- SCF
                                               per atom          (sec)   <-- SCF
------------------------------------------------------------------------ <-- SCF
Initial  -1.68461133E+004                                        250.07  <-- SCF
      1  -1.68461135E+004                    5.18379832E-006     262.47  <-- SCF
      2  -1.68461135E+004                    1.92118820E-009     275.20  <-- SCF
      3  -1.68461135E+004                    2.36658584E-011     288.01  <-- SCF
------------------------------------------------------------------------ <-- SCF
 
Final energy =  -16846.11351880     eV
(energy not corrected for finite basis set)
 
 
 *********************************** Forces ***********************************
 *                                                                            *
 *                        Cartesian components (eV/A)                         *
 * -------------------------------------------------------------------------- *
 *                   x                    y                    z              *
 *                                                                            *
 * O         1      0.00447              0.00405             -0.00475         *
 * O         2      0.00434              0.00410             -0.00478         *
 * O         3     -0.00447              0.00405              0.00475         *
 * O         4     -0.00434              0.00410              0.00478         *
 * O         5     -0.00447             -0.00405              0.00475         *
 * O         6     -0.00434             -0.00410              0.00478         *
 * O         7      0.00447             -0.00405             -0.00475         *
 * O         8      0.00434             -0.00410             -0.00478         *
 * O         9      0.00564             -0.00204             -0.00481         *
 * O        10      0.00568             -0.00208             -0.00479         *
 * O        11     -0.00564             -0.00204              0.00481         *
 * O        12     -0.00568             -0.00208              0.00479         *
 * O        13     -0.00564              0.00204              0.00481         *
 * O        14     -0.00568              0.00208              0.00479         *
 * O        15      0.00564              0.00204             -0.00481         *
 * O        16      0.00568              0.00208             -0.00479         *
 * O        17      0.00218             -0.00666              0.00341         *
 * O        18      0.00207             -0.00661              0.00336         *
 * O        19     -0.00218             -0.00666             -0.00341         *
 * O        20     -0.00207             -0.00661             -0.00336         *
 * O        21     -0.00218              0.00666             -0.00341         *
 * O        22     -0.00207              0.00661             -0.00336         *
 * O        23      0.00218              0.00666              0.00341         *
 * O        24      0.00207              0.00661              0.00336         *
 * Na        1      0.00000             -0.00777              0.00000         *
 * Na        2      0.00000             -0.00787              0.00000         *
 * Na        3      0.00000              0.00777              0.00000         *
 * Na        4      0.00000              0.00787              0.00000         *
 * Al        1      0.00000             -0.00853              0.00000         *
 * Al        2      0.00000             -0.00849              0.00000         *
 * Al        3      0.00000              0.00853              0.00000         *
 * Al        4      0.00000              0.00849              0.00000         *
 * Si        1      0.00381              0.00495              0.00495         *
 * Si        2      0.00374              0.00502              0.00493         *
 * Si        3     -0.00381              0.00495             -0.00495         *
 * Si        4     -0.00374              0.00502             -0.00493         *
 * Si        5     -0.00381             -0.00495             -0.00495         *
 * Si        6     -0.00374             -0.00502             -0.00493         *
 * Si        7      0.00381             -0.00495              0.00495         *
 * Si        8      0.00374             -0.00502              0.00493         *
 *                                                                            *
 ******************************************************************************
  
 +------------+-------------+-------------+-----------------+ <-- min BFGS
 |    Step    |   lambda    |   F.delta   |    enthalpy     | <-- min BFGS
 +------------+-------------+-------------+-----------------+ <-- min BFGS
 |  previous  |    0.000000 |    0.000001 |   -16835.342547 | <-- min BFGS
 | trial step |    1.000000 |    0.000000 |   -16835.342560 | <-- min BFGS
 +------------+-------------+-------------+-----------------+ <-- min BFGS
  

--------------------------------------------------------------------------------
 BFGS: improving iteration         2 with line minimization (lambda= 11.862874)
--------------------------------------------------------------------------------
 
                           -------------------------------
                                     Cell Contents
                           -------------------------------
 
            xxxxxxxxxxxxxxxxxxxxxxxxxxxxxxxxxxxxxxxxxxxxxxxxxxxxxxxxxxxx
            x  Element    Atom        Fractional coordinates of atoms  x
            x            Number           u          v          w      x
            x----------------------------------------------------------x
            x  O            1         0.109320   0.076993   0.129145   x
            x  O            2         0.609320   0.576992   0.129147   x
            x  O            3         0.890680   0.076993   0.370855   x
            x  O            4         0.390680   0.576992   0.370853   x
            x  O            5         0.890680   0.923007   0.870855   x
            x  O            6         0.390680   0.423008   0.870853   x
            x  O            7         0.109320   0.923007   0.629145   x
            x  O            8         0.609320   0.423008   0.629147   x
            x  O            9         0.361111   0.263754   0.295326   x
            x  O           10         0.861110   0.763754   0.295326   x
            x  O           11         0.638889   0.263754   0.204674   x
            x  O           12         0.138890   0.763754   0.204674   x
            x  O           13         0.638889   0.736246   0.704674   x
            x  O           14         0.138890   0.236246   0.704674   x
            x  O           15         0.361111   0.736246   0.795326   x
            x  O           16         0.861110   0.236246   0.795326   x
            x  O           17         0.354039   0.008497   1.005326   x
            x  O           18         0.854041   0.508494   1.005335   x
            x  O           19         0.645961   0.008497   0.494674   x
            x  O           20         0.145959   0.508494   0.494665   x
            x  O           21         0.645961   0.991503  -0.005326   x
            x  O           22         0.145959   0.491506  -0.005335   x
            x  O           23         0.354039   0.991503   0.505326   x
            x  O           24         0.854041   0.491506   0.505335   x
            x  Na           1         0.000000   0.301161   0.250000   x
            x  Na           2         0.500000   0.801165   0.250000   x
            x  Na           3         0.000000   0.698839   0.750000   x
            x  Na           4         0.500000   0.198835   0.750000   x
            x  Al           1         0.000000   0.906179   0.250000   x
            x  Al           2         0.500000   0.406180   0.250000   x
            x  Al           3         0.000000   0.093821   0.750000   x
            x  Al           4         0.500000   0.593820   0.750000   x
            x  Si           1         0.290903   0.093859   0.227996   x
            x  Si           2         0.790904   0.593858   0.228002   x
            x  Si           3         0.709097   0.093859   0.272004   x
            x  Si           4         0.209096   0.593858   0.271998   x
            x  Si           5         0.709097   0.906141   0.772004   x
            x  Si           6         0.209096   0.406142   0.771998   x
            x  Si           7         0.290903   0.906141   0.727996   x
            x  Si           8         0.790904   0.406142   0.728002   x
            xxxxxxxxxxxxxxxxxxxxxxxxxxxxxxxxxxxxxxxxxxxxxxxxxxxxxxxxxxxx
 
 
------------------------------------------------------------------------ <-- SCF
SCF loop      Energy                           Energy gain       Timer   <-- SCF
                                               per atom          (sec)   <-- SCF
------------------------------------------------------------------------ <-- SCF
Initial  -1.68461100E+004                                        293.76  <-- SCF
      1  -1.68461136E+004                    8.98323435E-005     306.08  <-- SCF
      2  -1.68461136E+004                    4.33751875E-008     318.37  <-- SCF
      3  -1.68461136E+004                    2.70919942E-010     330.71  <-- SCF
      4  -1.68461136E+004                    5.72311609E-012     344.16  <-- SCF
------------------------------------------------------------------------ <-- SCF
 
Final energy =  -16846.11358760     eV
(energy not corrected for finite basis set)
 
 
 *********************************** Forces ***********************************
 *                                                                            *
 *                        Cartesian components (eV/A)                         *
 * -------------------------------------------------------------------------- *
 *                   x                    y                    z              *
 *                                                                            *
 * O         1     -0.00105              0.00142             -0.00139         *
 * O         2     -0.00095              0.00150             -0.00139         *
 * O         3      0.00105              0.00142              0.00139         *
 * O         4      0.00095              0.00150              0.00139         *
 * O         5      0.00105             -0.00142              0.00139         *
 * O         6      0.00095             -0.00150              0.00139         *
 * O         7     -0.00105             -0.00142             -0.00139         *
 * O         8     -0.00095             -0.00150             -0.00139         *
 * O         9      0.00680              0.00793              0.00012         *
 * O        10      0.00688              0.00804              0.00015         *
 * O        11     -0.00680              0.00793             -0.00012         *
 * O        12     -0.00688              0.00804             -0.00015         *
 * O        13     -0.00680             -0.00793             -0.00012         *
 * O        14     -0.00688             -0.00804             -0.00015         *
 * O        15      0.00680             -0.00793              0.00012         *
 * O        16      0.00688             -0.00804              0.00015         *
 * O        17      0.00004             -0.00745              0.00239         *
 * O        18     -0.00008             -0.00741              0.00235         *
 * O        19     -0.00004             -0.00745             -0.00239         *
 * O        20      0.00008             -0.00741             -0.00235         *
 * O        21     -0.00004              0.00745             -0.00239         *
 * O        22      0.00008              0.00741             -0.00235         *
 * O        23      0.00004              0.00745              0.00239         *
 * O        24     -0.00008              0.00741              0.00235         *
 * Na        1      0.00000             -0.00551              0.00000         *
 * Na        2      0.00000             -0.00561              0.00000         *
 * Na        3      0.00000              0.00551              0.00000         *
 * Na        4      0.00000              0.00561              0.00000         *
 * Al        1      0.00000              0.00262              0.00000         *
 * Al        2      0.00000              0.00262              0.00000         *
 * Al        3      0.00000             -0.00262              0.00000         *
 * Al        4      0.00000             -0.00262              0.00000         *
 * Si        1      0.00103             -0.01626              0.00240         *
 * Si        2      0.00083             -0.01644              0.00235         *
 * Si        3     -0.00103             -0.01626             -0.00240         *
 * Si        4     -0.00083             -0.01644             -0.00235         *
 * Si        5     -0.00103              0.01626             -0.00240         *
 * Si        6     -0.00083              0.01644             -0.00235         *
 * Si        7      0.00103              0.01626              0.00240         *
 * Si        8      0.00083              0.01644              0.00235         *
 *                                                                            *
 ******************************************************************************
  
 +------------+-------------+-------------+-----------------+ <-- min BFGS
 |    Step    |   lambda    |   F.delta   |    enthalpy     | <-- min BFGS
 +------------+-------------+-------------+-----------------+ <-- min BFGS
 |  previous  |    0.000000 |    0.000001 |   -16835.342547 | <-- min BFGS
 | trial step |    1.000000 |    0.000000 |   -16835.342560 | <-- min BFGS
 |  line step |   11.862874 |    0.000000 |   -16835.342629 | <-- min BFGS
 +------------+-------------+-------------+-----------------+ <-- min BFGS
  
 BFGS: finished iteration     2 with enthalpy= -1.68353426E+004 eV
  
 +-----------+-----------------+-----------------+------------+-----+ <-- BFGS
 | Parameter |      value      |    tolerance    |    units   | OK? | <-- BFGS
 +-----------+-----------------+-----------------+------------+-----+ <-- BFGS
 |  dE/ion   |   2.056847E-006 |   2.000000E-007 |         eV | No  | <-- BFGS
 |  |F|max   |   1.662890E-002 |   1.000000E-003 |       eV/A | No  | <-- BFGS
 |  |dR|max  |   5.832481E-004 |   1.000000E-003 |          A | Yes | <-- BFGS
 +-----------+-----------------+-----------------+------------+-----+ <-- BFGS
  

================================================================================
 Starting BFGS iteration          3 ...
================================================================================
 
Writing model to jadeite_4_30_GPa_cij__4__2.check
  
 +------------+-------------+-------------+-----------------+ <-- min BFGS
 |    Step    |   lambda    |   F.delta   |    enthalpy     | <-- min BFGS
 +------------+-------------+-------------+-----------------+ <-- min BFGS
 |  previous  |    0.000000 |    0.000001 |   -16835.342629 | <-- min BFGS
 +------------+-------------+-------------+-----------------+ <-- min BFGS
  

--------------------------------------------------------------------------------
 BFGS: starting iteration         3 with trial guess (lambda=  1.000000)
--------------------------------------------------------------------------------
 
                           -------------------------------
                                     Cell Contents
                           -------------------------------
 
            xxxxxxxxxxxxxxxxxxxxxxxxxxxxxxxxxxxxxxxxxxxxxxxxxxxxxxxxxxxx
            x  Element    Atom        Fractional coordinates of atoms  x
            x            Number           u          v          w      x
            x----------------------------------------------------------x
            x  O            1         0.109322   0.076997   0.129139   x
            x  O            2         0.609323   0.576996   0.129141   x
            x  O            3         0.890678   0.076997   0.370861   x
            x  O            4         0.390677   0.576996   0.370859   x
            x  O            5         0.890678   0.923003   0.870861   x
            x  O            6         0.390677   0.423004   0.870859   x
            x  O            7         0.109322   0.923003   0.629139   x
            x  O            8         0.609323   0.423004   0.629141   x
            x  O            9         0.361118   0.263757   0.295324   x
            x  O           10         0.861118   0.763757   0.295324   x
            x  O           11         0.638882   0.263757   0.204676   x
            x  O           12         0.138882   0.763757   0.204676   x
            x  O           13         0.638882   0.736243   0.704676   x
            x  O           14         0.138882   0.236243   0.704676   x
            x  O           15         0.361118   0.736243   0.795324   x
            x  O           16         0.861118   0.236243   0.795324   x
            x  O           17         0.354040   0.008490   1.005336   x
            x  O           18         0.854042   0.508487   1.005345   x
            x  O           19         0.645960   0.008490   0.494664   x
            x  O           20         0.145958   0.508487   0.494655   x
            x  O           21         0.645960   0.991510  -0.005336   x
            x  O           22         0.145958   0.491513  -0.005345   x
            x  O           23         0.354040   0.991510   0.505336   x
            x  O           24         0.854042   0.491513   0.505345   x
            x  Na           1         0.000000   0.301153   0.250000   x
            x  Na           2         0.500000   0.801156   0.250000   x
            x  Na           3         0.000000   0.698847   0.750000   x
            x  Na           4         0.500000   0.198844   0.750000   x
            x  Al           1         0.000000   0.906174   0.250000   x
            x  Al           2         0.500000   0.406175   0.250000   x
            x  Al           3         0.000000   0.093826   0.750000   x
            x  Al           4         0.500000   0.593825   0.750000   x
            x  Si           1         0.290906   0.093854   0.228002   x
            x  Si           2         0.790907   0.593853   0.228008   x
            x  Si           3         0.709094   0.093854   0.271998   x
            x  Si           4         0.209093   0.593853   0.271992   x
            x  Si           5         0.709094   0.906146   0.771998   x
            x  Si           6         0.209093   0.406147   0.771992   x
            x  Si           7         0.290906   0.906146   0.728002   x
            x  Si           8         0.790907   0.406147   0.728008   x
            xxxxxxxxxxxxxxxxxxxxxxxxxxxxxxxxxxxxxxxxxxxxxxxxxxxxxxxxxxxx
 
 
------------------------------------------------------------------------ <-- SCF
SCF loop      Energy                           Energy gain       Timer   <-- SCF
                                               per atom          (sec)   <-- SCF
------------------------------------------------------------------------ <-- SCF
Initial  -1.68461135E+004                                        350.21  <-- SCF
      1  -1.68461136E+004                    2.73635344E-006     362.53  <-- SCF
      2  -1.68461136E+004                    1.25452252E-009     374.76  <-- SCF
      3  -1.68461136E+004                    9.20338939E-012     387.94  <-- SCF
------------------------------------------------------------------------ <-- SCF
 
Final energy =  -16846.11360371     eV
(energy not corrected for finite basis set)
 
 
 *********************************** Forces ***********************************
 *                                                                            *
 *                        Cartesian components (eV/A)                         *
 * -------------------------------------------------------------------------- *
 *                   x                    y                    z              *
 *                                                                            *
 * O         1     -0.00103              0.00085             -0.00078         *
 * O         2     -0.00096              0.00093             -0.00078         *
 * O         3      0.00103              0.00085              0.00078         *
 * O         4      0.00096              0.00093              0.00078         *
 * O         5      0.00103             -0.00085              0.00078         *
 * O         6      0.00096             -0.00093              0.00078         *
 * O         7     -0.00103             -0.00085             -0.00078         *
 * O         8     -0.00096             -0.00093             -0.00078         *
 * O         9      0.00504              0.00519              0.00051         *
 * O        10      0.00509              0.00525              0.00054         *
 * O        11     -0.00504              0.00519             -0.00051         *
 * O        12     -0.00509              0.00525             -0.00054         *
 * O        13     -0.00504             -0.00519             -0.00051         *
 * O        14     -0.00509             -0.00525             -0.00054         *
 * O        15      0.00504             -0.00519              0.00051         *
 * O        16      0.00509             -0.00525              0.00054         *
 * O        17      0.00052             -0.00728              0.00249         *
 * O        18      0.00039             -0.00725              0.00245         *
 * O        19     -0.00052             -0.00728             -0.00249         *
 * O        20     -0.00039             -0.00725             -0.00245         *
 * O        21     -0.00052              0.00728             -0.00249         *
 * O        22     -0.00039              0.00725             -0.00245         *
 * O        23      0.00052              0.00728              0.00249         *
 * O        24      0.00039              0.00725              0.00245         *
 * Na        1      0.00000             -0.00556              0.00000         *
 * Na        2      0.00000             -0.00565              0.00000         *
 * Na        3      0.00000              0.00556              0.00000         *
 * Na        4      0.00000              0.00565              0.00000         *
 * Al        1      0.00000              0.00351              0.00000         *
 * Al        2      0.00000              0.00350              0.00000         *
 * Al        3      0.00000             -0.00351              0.00000         *
 * Al        4      0.00000             -0.00350              0.00000         *
 * Si        1      0.00100             -0.01301              0.00222         *
 * Si        2      0.00087             -0.01314              0.00218         *
 * Si        3     -0.00100             -0.01301             -0.00222         *
 * Si        4     -0.00087             -0.01314             -0.00218         *
 * Si        5     -0.00100              0.01301             -0.00222         *
 * Si        6     -0.00087              0.01314             -0.00218         *
 * Si        7      0.00100              0.01301              0.00222         *
 * Si        8      0.00087              0.01314              0.00218         *
 *                                                                            *
 ******************************************************************************
  
 +------------+-------------+-------------+-----------------+ <-- min BFGS
 |    Step    |   lambda    |   F.delta   |    enthalpy     | <-- min BFGS
 +------------+-------------+-------------+-----------------+ <-- min BFGS
 |  previous  |    0.000000 |    0.000001 |   -16835.342629 | <-- min BFGS
 | trial step |    1.000000 |    0.000001 |   -16835.342645 | <-- min BFGS
 +------------+-------------+-------------+-----------------+ <-- min BFGS
  

--------------------------------------------------------------------------------
 BFGS: improving iteration         3 with line minimization (lambda=  5.489034)
--------------------------------------------------------------------------------
 
                           -------------------------------
                                     Cell Contents
                           -------------------------------
 
            xxxxxxxxxxxxxxxxxxxxxxxxxxxxxxxxxxxxxxxxxxxxxxxxxxxxxxxxxxxx
            x  Element    Atom        Fractional coordinates of atoms  x
            x            Number           u          v          w      x
            x----------------------------------------------------------x
            x  O            1         0.109334   0.077013   0.129115   x
            x  O            2         0.609334   0.577013   0.129116   x
            x  O            3         0.890666   0.077013   0.370885   x
            x  O            4         0.390666   0.577013   0.370884   x
            x  O            5         0.890666   0.922987   0.870885   x
            x  O            6         0.390666   0.422987   0.870884   x
            x  O            7         0.109334   0.922987   0.629115   x
            x  O            8         0.609334   0.422987   0.629116   x
            x  O            9         0.361151   0.263770   0.295316   x
            x  O           10         0.861151   0.763771   0.295316   x
            x  O           11         0.638849   0.263770   0.204684   x
            x  O           12         0.138849   0.763771   0.204684   x
            x  O           13         0.638849   0.736230   0.704684   x
            x  O           14         0.138849   0.236229   0.704684   x
            x  O           15         0.361151   0.736230   0.795316   x
            x  O           16         0.861151   0.236229   0.795316   x
            x  O           17         0.354046   0.008458   1.005383   x
            x  O           18         0.854048   0.508455   1.005391   x
            x  O           19         0.645954   0.008458   0.494617   x
            x  O           20         0.145952   0.508455   0.494609   x
            x  O           21         0.645954   0.991542  -0.005383   x
            x  O           22         0.145952   0.491545  -0.005391   x
            x  O           23         0.354046   0.991542   0.505383   x
            x  O           24         0.854048   0.491545   0.505391   x
            x  Na           1         0.000000   0.301116   0.250000   x
            x  Na           2         0.500000   0.801118   0.250000   x
            x  Na           3         0.000000   0.698884   0.750000   x
            x  Na           4         0.500000   0.198882   0.750000   x
            x  Al           1         0.000000   0.906151   0.250000   x
            x  Al           2         0.500000   0.406152   0.250000   x
            x  Al           3         0.000000   0.093849   0.750000   x
            x  Al           4         0.500000   0.593848   0.750000   x
            x  Si           1         0.290920   0.093832   0.228030   x
            x  Si           2         0.790920   0.593831   0.228034   x
            x  Si           3         0.709080   0.093832   0.271970   x
            x  Si           4         0.209080   0.593831   0.271966   x
            x  Si           5         0.709080   0.906168   0.771970   x
            x  Si           6         0.209080   0.406169   0.771966   x
            x  Si           7         0.290920   0.906168   0.728030   x
            x  Si           8         0.790920   0.406169   0.728034   x
            xxxxxxxxxxxxxxxxxxxxxxxxxxxxxxxxxxxxxxxxxxxxxxxxxxxxxxxxxxxx
 
 
------------------------------------------------------------------------ <-- SCF
SCF loop      Energy                           Energy gain       Timer   <-- SCF
                                               per atom          (sec)   <-- SCF
------------------------------------------------------------------------ <-- SCF
Initial  -1.68461120E+004                                        393.29  <-- SCF
      1  -1.68461136E+004                    4.19692821E-005     405.61  <-- SCF
      2  -1.68461136E+004                    1.89197711E-008     417.90  <-- SCF
      3  -1.68461136E+004                    1.41453775E-010     429.99  <-- SCF
      4  -1.68461136E+004                    3.09357627E-012     444.72  <-- SCF
------------------------------------------------------------------------ <-- SCF
 
Final energy =  -16846.11363602     eV
(energy not corrected for finite basis set)
 
 
 *********************************** Forces ***********************************
 *                                                                            *
 *                        Cartesian components (eV/A)                         *
 * -------------------------------------------------------------------------- *
 *                   x                    y                    z              *
 *                                                                            *
 * O         1     -0.00098             -0.00171              0.00198         *
 * O         2     -0.00103             -0.00169              0.00199         *
 * O         3      0.00098             -0.00171             -0.00198         *
 * O         4      0.00103             -0.00169             -0.00199         *
 * O         5      0.00098              0.00171             -0.00198         *
 * O         6      0.00103              0.00169             -0.00199         *
 * O         7     -0.00098              0.00171              0.00198         *
 * O         8     -0.00103              0.00169              0.00199         *
 * O         9     -0.00289             -0.00711              0.00231         *
 * O        10     -0.00299             -0.00730              0.00233         *
 * O        11      0.00289             -0.00711             -0.00231         *
 * O        12      0.00299             -0.00730             -0.00233         *
 * O        13      0.00289              0.00711             -0.00231         *
 * O        14      0.00299              0.00730             -0.00233         *
 * O        15     -0.00289              0.00711              0.00231         *
 * O        16     -0.00299              0.00730              0.00233         *
 * O        17      0.00265             -0.00649              0.00290         *
 * O        18      0.00252             -0.00648              0.00284         *
 * O        19     -0.00265             -0.00649             -0.00290         *
 * O        20     -0.00252             -0.00648             -0.00284         *
 * O        21     -0.00265              0.00649             -0.00290         *
 * O        22     -0.00252              0.00648             -0.00284         *
 * O        23      0.00265              0.00649              0.00290         *
 * O        24      0.00252              0.00648              0.00284         *
 * Na        1      0.00000             -0.00568              0.00000         *
 * Na        2      0.00000             -0.00572              0.00000         *
 * Na        3      0.00000              0.00568              0.00000         *
 * Na        4      0.00000              0.00572              0.00000         *
 * Al        1      0.00000              0.00754              0.00000         *
 * Al        2      0.00000              0.00745              0.00000         *
 * Al        3      0.00000             -0.00754              0.00000         *
 * Al        4      0.00000             -0.00745              0.00000         *
 * Si        1      0.00088              0.00154              0.00142         *
 * Si        2      0.00104              0.00168              0.00141         *
 * Si        3     -0.00088              0.00154             -0.00142         *
 * Si        4     -0.00104              0.00168             -0.00141         *
 * Si        5     -0.00088             -0.00154             -0.00142         *
 * Si        6     -0.00104             -0.00168             -0.00141         *
 * Si        7      0.00088             -0.00154              0.00142         *
 * Si        8      0.00104             -0.00168              0.00141         *
 *                                                                            *
 ******************************************************************************
  
 +------------+-------------+-------------+-----------------+ <-- min BFGS
 |    Step    |   lambda    |   F.delta   |    enthalpy     | <-- min BFGS
 +------------+-------------+-------------+-----------------+ <-- min BFGS
 |  previous  |    0.000000 |    0.000001 |   -16835.342629 | <-- min BFGS
 | trial step |    1.000000 |    0.000001 |   -16835.342645 | <-- min BFGS
 |  line step |    5.489034 |    0.000000 |   -16835.342678 | <-- min BFGS
 +------------+-------------+-------------+-----------------+ <-- min BFGS
  
 BFGS: finished iteration     3 with enthalpy= -1.68353427E+004 eV
  
 +-----------+-----------------+-----------------+------------+-----+ <-- BFGS
 | Parameter |      value      |    tolerance    |    units   | OK? | <-- BFGS
 +-----------+-----------------+-----------------+------------+-----+ <-- BFGS
 |  dE/ion   |   1.210518E-006 |   2.000000E-007 |         eV | No  | <-- BFGS
 |  |F|max   |   8.224038E-003 |   1.000000E-003 |       eV/A | No  | <-- BFGS
 |  |dR|max  |   4.348406E-004 |   1.000000E-003 |          A | Yes | <-- BFGS
 +-----------+-----------------+-----------------+------------+-----+ <-- BFGS
  

================================================================================
 Starting BFGS iteration          4 ...
================================================================================
 
Writing model to jadeite_4_30_GPa_cij__4__2.check
  
 +------------+-------------+-------------+-----------------+ <-- min BFGS
 |    Step    |   lambda    |   F.delta   |    enthalpy     | <-- min BFGS
 +------------+-------------+-------------+-----------------+ <-- min BFGS
[...]
            x  O           20         0.145901   0.508088   0.493938   x
            x  O           21         0.645901   0.991912  -0.006062   x
            x  O           22         0.145901   0.491912  -0.006062   x
            x  O           23         0.354099   0.991912   0.506062   x
            x  O           24         0.854099   0.491912   0.506062   x
            x  Na           1         0.000000   0.300827   0.250000   x
            x  Na           2         0.500000   0.800827   0.250000   x
            x  Na           3         0.000000   0.699173   0.750000   x
            x  Na           4         0.500000   0.199173   0.750000   x
            x  Al           1         0.000000   0.906224   0.250000   x
            x  Al           2         0.500000   0.406224   0.250000   x
            x  Al           3         0.000000   0.093776   0.750000   x
            x  Al           4         0.500000   0.593776   0.750000   x
            x  Si           1         0.290943   0.093816   0.228319   x
            x  Si           2         0.790943   0.593816   0.228320   x
            x  Si           3         0.709057   0.093816   0.271681   x
            x  Si           4         0.209057   0.593816   0.271680   x
            x  Si           5         0.709057   0.906184   0.771681   x
            x  Si           6         0.209057   0.406184   0.771680   x
            x  Si           7         0.290943   0.906184   0.728319   x
            x  Si           8         0.790943   0.406184   0.728320   x
            xxxxxxxxxxxxxxxxxxxxxxxxxxxxxxxxxxxxxxxxxxxxxxxxxxxxxxxxxxxx
 
 
 BFGS: Final Enthalpy     = -1.68353428E+004 eV
 BFGS: Final <frequency>  =    1018.56619 cm-1
 
 ***************************** Symmetrised Forces *****************************
 *                                                                            *
 *                        Cartesian components (eV/A)                         *
 * -------------------------------------------------------------------------- *
 *                   x                    y                    z              *
 *                                                                            *
 * O         1     -0.00014             -0.00001              0.00008         *
 * O         2      0.00002              0.00003              0.00008         *
 * O         3      0.00014             -0.00001             -0.00008         *
 * O         4     -0.00002              0.00003             -0.00008         *
 * O         5      0.00014              0.00001             -0.00008         *
 * O         6     -0.00002             -0.00003             -0.00008         *
 * O         7     -0.00014              0.00001              0.00008         *
 * O         8      0.00002             -0.00003              0.00008         *
 * O         9     -0.00003             -0.00016             -0.00007         *
 * O        10      0.00005             -0.00005             -0.00007         *
 * O        11      0.00003             -0.00016              0.00007         *
 * O        12     -0.00005             -0.00005              0.00007         *
 * O        13      0.00003              0.00016              0.00007         *
 * O        14     -0.00005              0.00005              0.00007         *
 * O        15     -0.00003              0.00016             -0.00007         *
 * O        16      0.00005              0.00005             -0.00007         *
 * O        17     -0.00019             -0.00023             -0.00019         *
 * O        18     -0.00018             -0.00016             -0.00007         *
 * O        19      0.00019             -0.00023              0.00019         *
 * O        20      0.00018             -0.00016              0.00007         *
 * O        21      0.00019              0.00023              0.00019         *
 * O        22      0.00018              0.00016              0.00007         *
 * O        23     -0.00019              0.00023             -0.00019         *
 * O        24     -0.00018              0.00016             -0.00007         *
 * Na        1      0.00000             -0.00004              0.00000         *
 * Na        2      0.00000             -0.00006              0.00000         *
 * Na        3      0.00000              0.00004              0.00000         *
 * Na        4      0.00000              0.00006              0.00000         *
 * Al        1      0.00000              0.00007              0.00000         *
 * Al        2      0.00000              0.00009              0.00000         *
 * Al        3      0.00000             -0.00007              0.00000         *
 * Al        4      0.00000             -0.00009              0.00000         *
 * Si        1      0.00021              0.00005              0.00017         *
 * Si        2     -0.00004             -0.00006              0.00005         *
 * Si        3     -0.00021              0.00005             -0.00017         *
 * Si        4      0.00004             -0.00006             -0.00005         *
 * Si        5     -0.00021             -0.00005             -0.00017         *
 * Si        6      0.00004              0.00006             -0.00005         *
 * Si        7      0.00021             -0.00005              0.00017         *
 * Si        8     -0.00004              0.00006              0.00005         *
 *                                                                            *
 ******************************************************************************
 
 *********** Symmetrised Stress Tensor ***********
 *                                               *
 *          Cartesian components (GPa)           *
 * --------------------------------------------- *
 *             x             y             z     *
 *                                               *
 *  x     -4.087702      0.000000     -0.255604  *
 *  y      0.000000     -4.111900      0.000000  *
 *  z     -0.255604      0.000000     -4.174664  *
 *                                               *
 *  Pressure:    4.1248                          *
 *                                               *
 *************************************************
 
 Pseudo atomic calculation performed for O 2s2 2p4
 
 Converged in 36 iterations to a total energy of -429.6485 eV
 
 
 Pseudo atomic calculation performed for Na 2s2 2p6 3s1
 
 Converged in 33 iterations to a total energy of -1302.8467 eV
 
 
 Pseudo atomic calculation performed for Al 3s2 3p1
 
 Converged in 20 iterations to a total energy of -52.7392 eV
 
 
 Pseudo atomic calculation performed for Si 3s2 3p2
 
 Converged in 21 iterations to a total energy of -101.9044 eV
 
Charge spilling parameter for spin component 1 = 0.85%
 
     Atomic Populations (Mulliken)
     -----------------------------
Species   Ion     s      p      d      f     Total  Charge (e)
==============================================================
  O        1     1.85   5.24   0.00   0.00   7.08    -1.08
  O        2     1.85   5.24   0.00   0.00   7.08    -1.08
  O        3     1.85   5.24   0.00   0.00   7.08    -1.08
  O        4     1.85   5.24   0.00   0.00   7.08    -1.08
  O        5     1.85   5.24   0.00   0.00   7.08    -1.08
  O        6     1.85   5.24   0.00   0.00   7.08    -1.08
  O        7     1.85   5.24   0.00   0.00   7.08    -1.08
  O        8     1.85   5.24   0.00   0.00   7.08    -1.08
  O        9     1.84   5.29   0.00   0.00   7.12    -1.12
  O       10     1.84   5.29   0.00   0.00   7.12    -1.12
  O       11     1.84   5.29   0.00   0.00   7.12    -1.12
  O       12     1.84   5.29   0.00   0.00   7.12    -1.12
  O       13     1.84   5.29   0.00   0.00   7.12    -1.12
  O       14     1.84   5.29   0.00   0.00   7.12    -1.12
  O       15     1.84   5.29   0.00   0.00   7.12    -1.12
  O       16     1.84   5.29   0.00   0.00   7.12    -1.12
  O       17     1.83   5.30   0.00   0.00   7.12    -1.12
  O       18     1.83   5.30   0.00   0.00   7.12    -1.12
  O       19     1.83   5.30   0.00   0.00   7.12    -1.12
  O       20     1.83   5.30   0.00   0.00   7.12    -1.12
  O       21     1.83   5.30   0.00   0.00   7.12    -1.12
  O       22     1.83   5.30   0.00   0.00   7.12    -1.12
  O       23     1.83   5.30   0.00   0.00   7.12    -1.12
  O       24     1.83   5.30   0.00   0.00   7.12    -1.12
  Na       1     2.04   5.77   0.00   0.00   7.81     1.19
  Na       2     2.04   5.77   0.00   0.00   7.81     1.19
  Na       3     2.04   5.77   0.00   0.00   7.81     1.19
  Na       4     2.04   5.77   0.00   0.00   7.81     1.19
  Al       1     0.51   0.92   0.00   0.00   1.43     1.57
  Al       2     0.51   0.92   0.00   0.00   1.43     1.57
  Al       3     0.51   0.92   0.00   0.00   1.43     1.57
  Al       4     0.51   0.92   0.00   0.00   1.43     1.57
  Si       1     0.69   1.36   0.00   0.00   2.05     1.95
  Si       2     0.69   1.36   0.00   0.00   2.05     1.95
  Si       3     0.69   1.36   0.00   0.00   2.05     1.95
  Si       4     0.69   1.36   0.00   0.00   2.05     1.95
  Si       5     0.69   1.36   0.00   0.00   2.05     1.95
  Si       6     0.69   1.36   0.00   0.00   2.05     1.95
  Si       7     0.69   1.36   0.00   0.00   2.05     1.95
  Si       8     0.69   1.36   0.00   0.00   2.05     1.95
==============================================================
 
     Bond                     Population      Length (A)
============================================================
   O 014 --   Si 006               0.76        1.59260
   O 012 --   Si 004               0.76        1.59260
   O 016 --   Si 008               0.76        1.59260
   O 010 --   Si 002               0.76        1.59260
   O 009 --   Si 001               0.76        1.59261
   O 011 --   Si 003               0.76        1.59261
   O 015 --   Si 007               0.76        1.59261
   O 013 --   Si 005               0.76        1.59261
   O 023 --   Si 007               0.56        1.63047
   O 021 --   Si 005               0.56        1.63047
   O 019 --   Si 003               0.56        1.63047
   O 017 --   Si 001               0.56        1.63047
   O 018 --   Si 002               0.56        1.63047
   O 020 --   Si 004               0.56        1.63047
   O 022 --   Si 006               0.56        1.63047
   O 024 --   Si 008               0.56        1.63047
   O 003 --   Si 003               0.59        1.63736
   O 005 --   Si 005               0.59        1.63736
   O 007 --   Si 007               0.59        1.63736
   O 001 --   Si 001               0.59        1.63736
   O 008 --   Si 008               0.59        1.63736
   O 002 --   Si 002               0.59        1.63736
   O 006 --   Si 006               0.59        1.63736
   O 004 --   Si 004               0.59        1.63736
   O 020 --   Si 006               0.58        1.64107
   O 024 --   Si 002               0.58        1.64107
   O 022 --   Si 004               0.58        1.64107
   O 018 --   Si 008               0.58        1.64107
   O 017 --   Si 007               0.58        1.64107
   O 023 --   Si 001               0.58        1.64107
   O 019 --   Si 005               0.58        1.64107
   O 021 --   Si 003               0.58        1.64107
   O 013 --   Al 004               0.42        1.85569
   O 015 --   Al 004               0.42        1.85569
   O 011 --   Al 002               0.42        1.85569
   O 009 --   Al 002               0.42        1.85569
   O 010 --   Al 001               0.42        1.85569
   O 016 --   Al 003               0.42        1.85569
   O 012 --   Al 001               0.42        1.85569
   O 014 --   Al 003               0.42        1.85569
   O 006 --   Al 002               0.33        1.93983
   O 008 --   Al 002               0.33        1.93983
   O 004 --   Al 004               0.33        1.93983
   O 002 --   Al 004               0.33        1.93983
   O 005 --   Al 001               0.33        1.93983
   O 007 --   Al 001               0.33        1.93983
   O 003 --   Al 003               0.33        1.93983
   O 001 --   Al 003               0.33        1.93983
   O 008 --   Al 004               0.31        1.99762
   O 006 --   Al 004               0.31        1.99762
   O 002 --   Al 002               0.31        1.99762
   O 004 --   Al 002               0.31        1.99762
   O 007 --   Al 003               0.31        1.99762
   O 005 --   Al 003               0.31        1.99762
   O 003 --   Al 001               0.31        1.99762
   O 001 --   Al 001               0.31        1.99762
   O 003 --   Na 001              -0.01        2.35089
   O 001 --   Na 001              -0.01        2.35089
   O 007 --   Na 003              -0.01        2.35089
   O 005 --   Na 003              -0.01        2.35089
   O 004 --   Na 002              -0.01        2.35090
   O 002 --   Na 002              -0.01        2.35090
   O 008 --   Na 004              -0.01        2.35090
   O 006 --   Na 004              -0.01        2.35090
   O 024 --   Na 003              -0.04        2.36585
   O 018 --   Na 001              -0.04        2.36585
   O 022 --   Na 003              -0.04        2.36585
   O 020 --   Na 001              -0.04        2.36585
   O 017 --   Na 002              -0.04        2.36585
   O 023 --   Na 004              -0.04        2.36585
   O 019 --   Na 002              -0.04        2.36585
   O 021 --   Na 004              -0.04        2.36585
   O 009 --   Na 004              -0.05        2.40194
   O 011 --   Na 004              -0.05        2.40194
   O 015 --   Na 002              -0.05        2.40194
   O 013 --   Na 002              -0.05        2.40194
   O 016 --   Na 001              -0.05        2.40194
   O 014 --   Na 001              -0.05        2.40194
   O 012 --   Na 003              -0.05        2.40194
   O 010 --   Na 003              -0.05        2.40194
   O 004 --    O 008              -0.10        2.47331
   O 002 --    O 006              -0.10        2.47331
   O 003 --    O 007              -0.10        2.47332
   O 001 --    O 005              -0.10        2.47332
   O 014 --    O 020              -0.10        2.58409
   O 012 --    O 022              -0.10        2.58409
   O 010 --    O 024              -0.10        2.58409
   O 016 --    O 018              -0.10        2.58409
   O 009 --    O 023              -0.10        2.58409
   O 011 --    O 021              -0.10        2.58409
   O 015 --    O 017              -0.10        2.58409
   O 013 --    O 019              -0.10        2.58409
   O 020 --    O 022              -0.17        2.61363
   O 018 --    O 024              -0.17        2.61363
   O 019 --    O 021              -0.17        2.61363
   O 017 --    O 023              -0.17        2.61363
   O 007 --    O 017              -0.08        2.63928
   O 005 --    O 019              -0.08        2.63928
   O 001 --    O 023              -0.08        2.63928
   O 003 --    O 021              -0.08        2.63928
   O 004 --    O 022              -0.08        2.63929
   O 006 --    O 020              -0.08        2.63929
   O 002 --    O 024              -0.08        2.63929
   O 008 --    O 018              -0.08        2.63929
   O 005 --    O 021              -0.09        2.64293
   O 007 --    O 023              -0.09        2.64293
   O 003 --    O 019              -0.09        2.64293
   O 001 --    O 017              -0.09        2.64293
   O 006 --    O 022              -0.09        2.64293
   O 004 --    O 020              -0.09        2.64293
   O 002 --    O 018              -0.09        2.64293
   O 008 --    O 024              -0.09        2.64293
   O 011 --    O 019              -0.08        2.64815
   O 013 --    O 021              -0.08        2.64815
   O 009 --    O 017              -0.08        2.64815
   O 015 --    O 023              -0.08        2.64815
   O 016 --    O 024              -0.08        2.64815
   O 010 --    O 018              -0.08        2.64815
   O 014 --    O 022              -0.08        2.64815
   O 012 --    O 020              -0.08        2.64815
   O 005 --    O 010              -0.08        2.68670
   O 007 --    O 012              -0.08        2.68670
   O 001 --    O 014              -0.08        2.68670
   O 003 --    O 016              -0.08        2.68670
   O 002 --    O 013              -0.08        2.68670
   O 004 --    O 015              -0.08        2.68670
   O 008 --    O 011              -0.08        2.68670
   O 006 --    O 009              -0.08        2.68670
   O 008 --    O 013              -0.05        2.71166
   O 006 --    O 015              -0.05        2.71166
   O 004 --    O 009              -0.05        2.71166
   O 002 --    O 011              -0.05        2.71166
   O 003 --    O 010              -0.05        2.71167
   O 007 --    O 014              -0.05        2.71167
   O 005 --    O 016              -0.05        2.71167
   O 001 --    O 012              -0.05        2.71167
   O 002 --    O 004              -0.05        2.72343
   O 006 --    O 008              -0.05        2.72343
   O 001 --    O 003              -0.05        2.72343
   O 005 --    O 007              -0.05        2.72343
   O 017 --   Na 004              -0.02        2.73317
   O 023 --   Na 002              -0.02        2.73317
   O 021 --   Na 002              -0.02        2.73317
   O 019 --   Na 004              -0.02        2.73317
   O 022 --   Na 001              -0.02        2.73317
   O 020 --   Na 003              -0.02        2.73317
   O 024 --   Na 001              -0.02        2.73317
   O 018 --   Na 003              -0.02        2.73317
   O 001 --    O 009              -0.06        2.77346
   O 003 --    O 011              -0.06        2.77346
   O 007 --    O 015              -0.06        2.77346
   O 005 --    O 013              -0.06        2.77346
   O 006 --    O 014              -0.06        2.77346
   O 004 --    O 012              -0.06        2.77346
   O 008 --    O 016              -0.06        2.77346
   O 002 --    O 010              -0.06        2.77346
   O 020 --    O 024              -0.04        2.77398
   O 018 --    O 022              -0.04        2.77398
   O 017 --    O 021              -0.04        2.77399
   O 019 --    O 023              -0.04        2.77399
   O 013 --    O 015              -0.05        2.79794
   O 009 --    O 011              -0.05        2.79794
   O 010 --    O 012              -0.05        2.79794
   O 014 --    O 016              -0.05        2.79794
   O 004 --    O 013              -0.04        2.81010
   O 002 --    O 015              -0.04        2.81010
   O 008 --    O 009              -0.04        2.81010
   O 006 --    O 011              -0.04        2.81010
   O 007 --    O 010              -0.04        2.81010
   O 001 --    O 016              -0.04        2.81010
   O 005 --    O 012              -0.04        2.81010
   O 003 --    O 014              -0.04        2.81010
   O 012 --    O 023              -0.03        2.90924
   O 010 --    O 021              -0.03        2.90924
   O 014 --    O 017              -0.03        2.90924
   O 016 --    O 019              -0.03        2.90924
   O 015 --    O 020              -0.03        2.90924
   O 013 --    O 018              -0.03        2.90924
   O 011 --    O 024              -0.03        2.90924
   O 009 --    O 022              -0.03        2.90924
   O 004 --    O 006              -0.06        2.92371
   O 002 --    O 008              -0.06        2.92371
   O 003 --    O 005              -0.06        2.92371
   O 001 --    O 007              -0.06        2.92371
============================================================
 
 
Writing model to jadeite_4_30_GPa_cij__4__2.check
 
Writing analysis data to jadeite_4_30_GPa_cij__4__2.castep_bin
Initialisation time =      2.02 s
Calculation time    =   1640.25 s
Finalisation time   =      0.87 s
Total time          =   1643.14 s
Peak Memory Use     = 221880 kB
