 +-------------------------------------------------+
 |                                                 |
 |      CCC   AA    SSS  TTTTT  EEEEE  PPPP        |
 |     C     A  A  S       T    E      P   P       |
 |     C     AAAA   SS     T    EEE    PPPP        |
 |     C     A  A     S    T    E      P           |
 |      CCC  A  A  SSS     T    EEEEE  P           |
 |                                                 |
 +-------------------------------------------------+
 |                                                 |
 | Welcome to Academic Release CASTEP version 5.02 |
 | Ab Initio Total Energy Program                  |
 |                                                 |
 | Authors:                                        |
 | M. Segall, M. Probert, C. Pickard, P. Hasnip,   |
 | S. Clark, K. Refson, M. Payne                   |
 |                                                 |
 | Contributors:                                   |
 | P. Lindan, P. Haynes, J. White, V. Milman,      |
 | N. Govind, M. Gibson, P. Tulip, V. Cocula,      |
 | B. Montanari, D. Quigley, M. Glover,            |
 | L. Bernasconi, A. Perlov, M. Plummer            |
 |                                                 |
 | Copyright (c) 2000 - 2009                       |
 |                                                 |
 |     Distributed under the terms of an           |
 |     Agreement between the United Kingdom        |
 |     Car-Parrinello (UKCP) Consortium,           |
 |     Daresbury Laboratory and Accelrys, Inc.     |
 |                                                 |
 | Please cite                                     |
 |                                                 |
 |     "First principles methods using CASTEP"     |
 |                                                 |
 |         Zeitschrift fuer Kristallographie       |
 |           220(5-6) pp. 567-570 (2005)           |
 |                                                 |
 | S. J. Clark, M. D. Segall, C. J. Pickard,       |
 | P. J. Hasnip, M. J. Probert, K. Refson,         |
 | M. C. Payne                                     |
 |                                                 |
 |       in all publications arising from          |
 |              your use of CASTEP                 |
 |                                                 |
 +-------------------------------------------------+
 
 
 Pseudo atomic calculation performed for O 2s2 2p4
 
 Converged in 36 iterations to a total energy of -429.6485 eV
 
 
 Pseudo atomic calculation performed for Na 2s2 2p6 3s1
 
 Converged in 33 iterations to a total energy of -1302.8467 eV
 
 
 Pseudo atomic calculation performed for Al 3s2 3p1
 
 Converged in 20 iterations to a total energy of -52.7392 eV
 
 
 Pseudo atomic calculation performed for Si 3s2 3p2
 
 Converged in 21 iterations to a total energy of -101.9044 eV
 
Calculation parallelised over   36 nodes.
K-points are distributed over    6 groups, each containing    6 nodes.

 ************************************ Title ************************************
 

 ***************************** General Parameters ******************************
  
 output verbosity                               : normal  (1)
 write checkpoint data to                       : jadeite_4_30_GPa_cij__1__2.check
 type of calculation                            : geometry optimization
 stress calculation                             : on
 density difference calculation                 : off
 electron localisation func (ELF) calculation   : off
 Hirshfeld analysis                             : off
 unlimited duration calculation
 timing information                             : on
 memory usage estimate                          : on
 write final potential to formatted file        : off
 write final density to formatted file          : off
  
 output         length unit                     : A
 output           mass unit                     : amu
 output           time unit                     : ps
 output         charge unit                     : e
 output         energy unit                     : eV
 output          force unit                     : eV/A
 output       velocity unit                     : A/ps
 output       pressure unit                     : GPa
 output     inv_length unit                     : 1/A
 output      frequency unit                     : cm-1
 output force constant unit                     : eV/A**2
 output         volume unit                     : A**3
 output   IR intensity unit                     : (D/A)**2/amu
 output         dipole unit                     : D
 output         efield unit                     : eV/A/e
  
 wavefunctions paging                           : none
 data distribution                              : optimal for this architecture
 optimization strategy                          : maximize speed(+++)

 *********************** Exchange-Correlation Parameters ***********************
  
 using functional                               : Perdew Burke Ernzerhof
 Divergence correction                          : off
 DFT+D: Semi-empirical dispersion correction    : off

 ************************* Pseudopotential Parameters **************************
  
 pseudopotential representation                 : reciprocal space
 <beta|phi> representation                      : reciprocal space

 **************************** Basis Set Parameters *****************************
  
 plane wave basis set cut-off                   :   700.0000   eV
 finite basis set correction                    : none

 **************************** Electronic Parameters ****************************
  
 number of  electrons                           :  224.0    
 net charge of system                           :  0.000    
 net spin   of system                           :  0.000    
 number of  up  spins                           :  112.0    
 number of down spins                           :  112.0    
 treating system as non-spin-polarized
 number of bands                                :        112

 ********************* Electronic Minimization Parameters **********************
  
 Method: Treating system as non-metallic,
         and number of  SD  steps               :          1
         and number of  CG  steps               :          4
  
 total energy / atom convergence tol.           : 0.1000E-07   eV
 max force / atom convergence tol.              : ignored
 convergence tolerance window                   :          3   cycles
 max. number of SCF cycles                      :        100

 *********************** Population Analysis Parameters ************************
  
 Population analysis with cutoff                :  3.000       A

 ********************** Geometry Optimization Parameters ***********************
  
 optimization method                            : BFGS
 variable cell method                           : fixed basis quality
 max. number of steps                           :        300
 estimated bulk modulus                         :  500.0       GPa
 estimated <frequency>                          :  1668.       cm-1
 line minimiser tolerance                       :     0.4000
 total energy convergence tolerance             : 0.2000E-06   eV/atom
        max ionic |force| tolerance             : 0.1000E-02   eV/A
 max ionic |displacement| tolerance             : 0.1000E-02   A
   max |stress component| tolerance             : 0.1000E-02   GPa
 convergence tolerance window                   :          2   steps
 backup results every                           :          1   steps

 *******************************************************************************
  
 
                           -------------------------------
                                      Unit Cell
                           -------------------------------
        Real Lattice(A)                      Reciprocal Lattice(1/A)
   8.9480059   0.0000000  -2.8290832        0.7021883   0.0000000   0.0000000
   0.0000000   8.5603493  -0.0333333        0.0000000   0.7339870   0.0000000
   0.0000000   0.0000000   5.2199179        0.3805710   0.0046871   1.2036943
 
                       Lattice parameters(A)       Cell Angles
                    a =    9.384590          alpha =   90.223104
                    b =    8.560414          beta  =  107.545346
                    c =    5.219918          gamma =   89.932743
 
                       Current cell volume =  399.835566       A**3
 
                           -------------------------------
                                     Cell Contents
                           -------------------------------
                         Total number of ions in cell =   40
                      Total number of species in cell =    4
                        Max number of any one species =   24
 
            xxxxxxxxxxxxxxxxxxxxxxxxxxxxxxxxxxxxxxxxxxxxxxxxxxxxxxxxxxxx
            x  Element    Atom        Fractional coordinates of atoms  x
            x            Number           u          v          w      x
            x----------------------------------------------------------x
            x  O            1         0.109277   0.076953   0.129205   x
            x  O            2         0.609279   0.576952   0.129208   x
            x  O            3         0.890723   0.076953   0.370795   x
            x  O            4         0.390721   0.576952   0.370792   x
            x  O            5         0.890723   0.923047   0.870795   x
            x  O            6         0.390721   0.423048   0.870792   x
            x  O            7         0.109277   0.923047   0.629205   x
            x  O            8         0.609279   0.423048   0.629208   x
            x  O            9         0.361047   0.263746   0.295383   x
            x  O           10         0.861046   0.763747   0.295382   x
            x  O           11         0.638953   0.263746   0.204617   x
            x  O           12         0.138954   0.763747   0.204618   x
            x  O           13         0.638953   0.736254   0.704617   x
            x  O           14         0.138954   0.236253   0.704618   x
            x  O           15         0.361047   0.736254   0.795383   x
            x  O           16         0.861046   0.236253   0.795382   x
            x  O           17         0.354029   0.008469   1.005059   x
            x  O           18         0.854032   0.508466   1.005069   x
            x  O           19         0.645971   0.008469   0.494941   x
            x  O           20         0.145968   0.508466   0.494931   x
            x  O           21         0.645971   0.991530  -0.005059   x
            x  O           22         0.145968   0.491534  -0.005069   x
            x  O           23         0.354029   0.991530   0.505059   x
            x  O           24         0.854032   0.491534   0.505069   x
            x  Na           1         0.000000   0.301230   0.250000   x
            x  Na           2         0.500000   0.801235   0.250000   x
            x  Na           3         0.000000   0.698770   0.750000   x
            x  Na           4         0.500000   0.198765   0.750000   x
            x  Al           1         0.000000   0.906276   0.250000   x
            x  Al           2         0.500000   0.406277   0.250000   x
            x  Al           3         0.000000   0.093724   0.750000   x
            x  Al           4         0.500000   0.593723   0.750000   x
            x  Si           1         0.290869   0.093825   0.228100   x
            x  Si           2         0.790871   0.593824   0.228106   x
            x  Si           3         0.709131   0.093825   0.271900   x
            x  Si           4         0.209129   0.593824   0.271894   x
            x  Si           5         0.709131   0.906176   0.771900   x
            x  Si           6         0.209129   0.406176   0.771894   x
            x  Si           7         0.290869   0.906176   0.728100   x
            x  Si           8         0.790871   0.406176   0.728106   x
            xxxxxxxxxxxxxxxxxxxxxxxxxxxxxxxxxxxxxxxxxxxxxxxxxxxxxxxxxxxx
 
 
                         No user defined ionic velocities
 
                           -------------------------------
                                   Details of Species
                           -------------------------------
 
                               Mass of species in AMU
                                    O   15.9994000
                                    Na   22.9897700
                                    Al   26.9815400
                                    Si   28.0855000
 
                          Electric Quadrupole Moment (Barn)
                                    O   -0.0255800 Isotope 17
                                    Na    0.1040000 Isotope 23
                                    Al    0.1466000 Isotope 27
                                    Si    1.0000000 No Isotope Defined
 
                          Files used for pseudopotentials:
                                    O O_00PBE.usp
                                    Na Na_00PBE.usp
                                    Al Al_00PBE.usp
                                    Si Si_00PBE.usp
 
                           -------------------------------
                              k-Points For BZ Sampling
                           -------------------------------
                       MP grid size for SCF calculation is  2  2  3
                         Number of kpoints used = 6
 
             +++++++++++++++++++++++++++++++++++++++++++++++++++++++
             +  Number       Fractional coordinates        Weight  +
             +-----------------------------------------------------+
             +     1  -0.250000   0.250000   0.333333   0.1666667  +
             +     2  -0.250000   0.250000   0.000000   0.1666667  +
             +     3   0.250000  -0.250000   0.333333   0.1666667  +
             +     4  -0.250000  -0.250000   0.333333   0.1666667  +
             +     5   0.250000   0.250000   0.000000   0.1666667  +
             +     6   0.250000   0.250000   0.333333   0.1666667  +
             +++++++++++++++++++++++++++++++++++++++++++++++++++++++
 
                           -------------------------------
                               Symmetry and Constraints
                           -------------------------------
 
                      Number of symmetry operations   = 2
                      Number of ionic constraints     = 3
                      Maximum deviation from symmetry = 0.147216E-14     ANG
               Point group of crystal =     2: Ci, -1, -1
           Set iprint > 1 for details on symmetry rotations/translations
 
                          Centre of mass is constrained
             Set iprint > 1 for details of linear ionic constraints
 
                         Number of cell constraints= 6
                         Cell constraints are:  0 0 0 0 0 0
 
                         External pressure/stress (GPa)
                          4.30000   0.00000   0.00000
                                    4.30000   0.00000
                                              4.30000
  
+---------------- MEMORY AND SCRATCH DISK ESTIMATES PER NODE -----------------+
|                                                     Memory          Disk    |
| Model and support data                               91.5 MB         0.0 MB |
| Electronic energy minimisation requirements          32.4 MB         0.0 MB |
|                                               ----------------------------- |
| Approx. total storage required per node             123.9 MB         0.0 MB |
|                                                                             |
| Requirements will fluctuate during execution and may exceed these estimates |
+-----------------------------------------------------------------------------+
------------------------------------------------------------------------ <-- SCF
SCF loop      Energy                           Energy gain       Timer   <-- SCF
                                               per atom          (sec)   <-- SCF
------------------------------------------------------------------------ <-- SCF
Initial  -1.65576363E+003                                          7.02  <-- SCF
      1  -1.65625316E+004                    3.72669200E+002      27.67  <-- SCF
      2  -1.68171668E+004                    6.36587996E+000      47.44  <-- SCF
      3  -1.68435131E+004                    6.58655668E-001      66.98  <-- SCF
      4  -1.68460256E+004                    6.28121299E-002      86.54  <-- SCF
      5  -1.68460638E+004                    9.55923194E-004     106.30  <-- SCF
      6  -1.68460645E+004                    1.84536974E-005     126.25  <-- SCF
      7  -1.68460646E+004                    5.35938577E-007     146.05  <-- SCF
      8  -1.68460646E+004                    1.75551946E-008     165.75  <-- SCF
      9  -1.68460646E+004                    5.83680502E-010     186.53  <-- SCF
     10  -1.68460646E+004                    2.04176034E-011     207.35  <-- SCF
------------------------------------------------------------------------ <-- SCF
 
Final energy =  -16846.06455546     eV
(energy not corrected for finite basis set)
 
 
Writing model to jadeite_4_30_GPa_cij__1__2.check
 
+---------------- MEMORY AND SCRATCH DISK ESTIMATES PER NODE -----------------+
|                                                     Memory          Disk    |
| Model and support data                               84.6 MB         0.0 MB |
| Geometry minimisation requirements                   37.7 MB         0.0 MB |
|                                               ----------------------------- |
| Approx. total storage required per node             122.3 MB         0.0 MB |
|                                                                             |
| Requirements will fluctuate during execution and may exceed these estimates |
+-----------------------------------------------------------------------------+
 
 
 *********************************** Forces ***********************************
 *                                                                            *
 *                        Cartesian components (eV/A)                         *
 * -------------------------------------------------------------------------- *
 *                   x                    y                    z              *
 *                                                                            *
 * O         1     -0.11876              0.00033              0.00402         *
 * O         2     -0.11891              0.00038              0.00398         *
 * O         3      0.13030             -0.00867             -0.00867         *
 * O         4      0.13045             -0.00862             -0.00863         *
 * O         5      0.11876             -0.00033             -0.00402         *
 * O         6      0.11891             -0.00038             -0.00398         *
 * O         7     -0.13030              0.00867              0.00867         *
 * O         8     -0.13045              0.00862              0.00863         *
 * O         9      0.00454              0.03404              0.01830         *
 * O        10      0.00466              0.03411              0.01830         *
 * O        11      0.02061             -0.00583             -0.00420         *
 * O        12      0.02049             -0.00576             -0.00420         *
 * O        13     -0.00454             -0.03404             -0.01830         *
 * O        14     -0.00466             -0.03411             -0.01830         *
 * O        15     -0.02061              0.00583              0.00420         *
 * O        16     -0.02049              0.00576              0.00420         *
 * O        17      0.06694              0.00308              0.00163         *
 * O        18      0.06688              0.00315              0.00158         *
 * O        19     -0.00003              0.00143             -0.00355         *
 * O        20      0.00003              0.00151             -0.00351         *
 * O        21     -0.06694             -0.00308             -0.00163         *
 * O        22     -0.06688             -0.00315             -0.00158         *
 * O        23      0.00003             -0.00143              0.00355         *
 * O        24     -0.00003             -0.00151              0.00351         *
 * Na        1     -0.00840             -0.00226              0.00842         *
 * Na        2     -0.00840             -0.00238              0.00842         *
 * Na        3      0.00840              0.00226             -0.00842         *
 * Na        4      0.00840              0.00238             -0.00842         *
 * Al        1     -0.01455              0.00831             -0.00350         *
 * Al        2     -0.01455              0.00841             -0.00350         *
 * Al        3      0.01455             -0.00831              0.00350         *
 * Al        4      0.01455             -0.00841              0.00350         *
 * Si        1      0.10694             -0.01244              0.09426         *
 * Si        2      0.10673             -0.01240              0.09424         *
 * Si        3     -0.12583              0.00132              0.09285         *
 * Si        4     -0.12562              0.00135              0.09287         *
 * Si        5     -0.10694              0.01244             -0.09426         *
 * Si        6     -0.10673              0.01240             -0.09424         *
 * Si        7      0.12583             -0.00132             -0.09285         *
 * Si        8      0.12562             -0.00135             -0.09287         *
 *                                                                            *
 ******************************************************************************
 BFGS: finished iteration     0 with enthalpy= -1.68353336E+004 eV
  
 +-----------+-----------------+-----------------+------------+-----+ <-- BFGS
 | Parameter |      value      |    tolerance    |    units   | OK? | <-- BFGS
 +-----------+-----------------+-----------------+------------+-----+ <-- BFGS
 |  dE/ion   |   0.000000E+000 |   2.000000E-007 |         eV | No  | <-- BFGS
 |  |F|max   |   1.563817E-001 |   1.000000E-003 |       eV/A | No  | <-- BFGS
 |  |dR|max  |   0.000000E+000 |   1.000000E-003 |          A | No  | <-- BFGS
 +-----------+-----------------+-----------------+------------+-----+ <-- BFGS
  

================================================================================
 Starting BFGS iteration          1 ...
================================================================================
 
Writing model to jadeite_4_30_GPa_cij__1__2.check
  
 +------------+-------------+-------------+-----------------+ <-- min BFGS
 |    Step    |   lambda    |   F.delta   |    enthalpy     | <-- min BFGS
 +------------+-------------+-------------+-----------------+ <-- min BFGS
 |  previous  |    0.000000 |    0.000059 |   -16835.333572 | <-- min BFGS
 +------------+-------------+-------------+-----------------+ <-- min BFGS
  

--------------------------------------------------------------------------------
 BFGS: starting iteration         1 with trial guess (lambda=  1.000000)
--------------------------------------------------------------------------------
 
                           -------------------------------
                                     Cell Contents
                           -------------------------------
 
            xxxxxxxxxxxxxxxxxxxxxxxxxxxxxxxxxxxxxxxxxxxxxxxxxxxxxxxxxxxx
            x  Element    Atom        Fractional coordinates of atoms  x
            x            Number           u          v          w      x
            x----------------------------------------------------------x
            x  O            1         0.109213   0.076953   0.129174   x
            x  O            2         0.609215   0.576952   0.129177   x
            x  O            3         0.890793   0.076948   0.370825   x
            x  O            4         0.390792   0.576947   0.370822   x
            x  O            5         0.890787   0.923047   0.870826   x
            x  O            6         0.390785   0.423048   0.870823   x
            x  O            7         0.109207   0.923052   0.629175   x
            x  O            8         0.609208   0.423053   0.629178   x
            x  O            9         0.361049   0.263766   0.295401   x
            x  O           10         0.861049   0.763766   0.295400   x
            x  O           11         0.638964   0.263743   0.204619   x
            x  O           12         0.138965   0.763744   0.204620   x
            x  O           13         0.638951   0.736234   0.704599   x
            x  O           14         0.138951   0.236234   0.704600   x
            x  O           15         0.361036   0.736257   0.795381   x
            x  O           16         0.861035   0.236256   0.795380   x
            x  O           17         0.354065   0.008471   1.005080   x
            x  O           18         0.854068   0.508468   1.005090   x
            x  O           19         0.645971   0.008470   0.494938   x
            x  O           20         0.145968   0.508467   0.494928   x
            x  O           21         0.645935   0.991529  -0.005080   x
            x  O           22         0.145932   0.491532  -0.005090   x
            x  O           23         0.354029   0.991530   0.505062   x
            x  O           24         0.854032   0.491533   0.505072   x
            x  Na           1        -0.000005   0.301229   0.250005   x
            x  Na           2         0.499995   0.801233   0.250005   x
            x  Na           3         0.000005   0.698771   0.749995   x
            x  Na           4         0.500005   0.198767   0.749995   x
            x  Al           1        -0.000008   0.906281   0.249993   x
            x  Al           2         0.499992   0.406281   0.249993   x
            x  Al           3         0.000008   0.093719   0.750007   x
            x  Al           4         0.500008   0.593719   0.750007   x
            x  Si           1         0.290927   0.093817   0.228219   x
            x  Si           2         0.790929   0.593816   0.228225   x
            x  Si           3         0.709063   0.093825   0.271949   x
            x  Si           4         0.209061   0.593824   0.271943   x
            x  Si           5         0.709073   0.906183   0.771781   x
            x  Si           6         0.209071   0.406184   0.771775   x
            x  Si           7         0.290937   0.906175   0.728051   x
            x  Si           8         0.790939   0.406176   0.728057   x
            xxxxxxxxxxxxxxxxxxxxxxxxxxxxxxxxxxxxxxxxxxxxxxxxxxxxxxxxxxxx
 
 
------------------------------------------------------------------------ <-- SCF
SCF loop      Energy                           Energy gain       Timer   <-- SCF
                                               per atom          (sec)   <-- SCF
------------------------------------------------------------------------ <-- SCF
Initial  -1.68460603E+004                                        218.57  <-- SCF
      1  -1.68460659E+004                    1.40837293E-004     238.72  <-- SCF
      2  -1.68460659E+004                    5.43630290E-008     258.54  <-- SCF
      3  -1.68460659E+004                    6.86851270E-010     279.03  <-- SCF
      4  -1.68460659E+004                    1.44624690E-011     301.21  <-- SCF
------------------------------------------------------------------------ <-- SCF
 
Final energy =  -16846.06592420     eV
(energy not corrected for finite basis set)
 
 
 *********************************** Forces ***********************************
 *                                                                            *
 *                        Cartesian components (eV/A)                         *
 * -------------------------------------------------------------------------- *
 *                   x                    y                    z              *
 *                                                                            *
 * O         1     -0.08080              0.00417              0.00564         *
 * O         2     -0.08096              0.00422              0.00561         *
 * O         3      0.08796             -0.00343             -0.00655         *
 * O         4      0.08811             -0.00338             -0.00651         *
 * O         5      0.08080             -0.00417             -0.00564         *
 * O         6      0.08096             -0.00422             -0.00561         *
 * O         7     -0.08796              0.00343              0.00655         *
 * O         8     -0.08811              0.00338              0.00651         *
 * O         9      0.00291              0.02722              0.02055         *
 * O        10      0.00301              0.02725              0.02056         *
 * O        11      0.01747             -0.00138             -0.00132         *
 * O        12      0.01737             -0.00134             -0.00133         *
 * O        13     -0.00291             -0.02722             -0.02055         *
 * O        14     -0.00301             -0.02725             -0.02056         *
 * O        15     -0.01747              0.00138              0.00132         *
 * O        16     -0.01737              0.00134              0.00133         *
 * O        17      0.06274              0.00389              0.00336         *
 * O        18      0.06267              0.00395              0.00332         *
 * O        19     -0.00982              0.00109             -0.00063         *
 * O        20     -0.00975              0.00116             -0.00058         *
 * O        21     -0.06274             -0.00389             -0.00336         *
 * O        22     -0.06267             -0.00395             -0.00332         *
 * O        23      0.00982             -0.00109              0.00063         *
 * O        24      0.00975             -0.00116              0.00058         *
 * Na        1     -0.00925             -0.00552              0.00686         *
 * Na        2     -0.00925             -0.00563              0.00686         *
 * Na        3      0.00925              0.00552             -0.00686         *
 * Na        4      0.00925              0.00563             -0.00686         *
 * Al        1     -0.01451              0.01417             -0.00297         *
 * Al        2     -0.01451              0.01426             -0.00297         *
 * Al        3      0.01451             -0.01417              0.00297         *
 * Al        4      0.01451             -0.01426              0.00297         *
 * Si        1      0.07042             -0.00748              0.07051         *
 * Si        2      0.07025             -0.00743              0.07050         *
 * Si        3     -0.08161             -0.00181              0.06808         *
 * Si        4     -0.08144             -0.00176              0.06810         *
 * Si        5     -0.07042              0.00748             -0.07051         *
 * Si        6     -0.07025              0.00743             -0.07050         *
 * Si        7      0.08161              0.00181             -0.06808         *
 * Si        8      0.08144              0.00176             -0.06810         *
 *                                                                            *
 ******************************************************************************
  
 +------------+-------------+-------------+-----------------+ <-- min BFGS
 |    Step    |   lambda    |   F.delta   |    enthalpy     | <-- min BFGS
 +------------+-------------+-------------+-----------------+ <-- min BFGS
 |  previous  |    0.000000 |    0.000059 |   -16835.333572 | <-- min BFGS
 | trial step |    1.000000 |    0.000042 |   -16835.334941 | <-- min BFGS
 +------------+-------------+-------------+-----------------+ <-- min BFGS
  

--------------------------------------------------------------------------------
 BFGS: improving iteration         1 with line minimization (lambda=  3.366402)
--------------------------------------------------------------------------------
 
                           -------------------------------
                                     Cell Contents
                           -------------------------------
 
            xxxxxxxxxxxxxxxxxxxxxxxxxxxxxxxxxxxxxxxxxxxxxxxxxxxxxxxxxxxx
            x  Element    Atom        Fractional coordinates of atoms  x
            x            Number           u          v          w      x
            x----------------------------------------------------------x
            x  O            1         0.109061   0.076954   0.129100   x
            x  O            2         0.609063   0.576952   0.129103   x
            x  O            3         0.890960   0.076937   0.370896   x
            x  O            4         0.390958   0.576935   0.370894   x
            x  O            5         0.890939   0.923046   0.870900   x
            x  O            6         0.390937   0.423048   0.870897   x
            x  O            7         0.109040   0.923063   0.629104   x
            x  O            8         0.609042   0.423065   0.629106   x
            x  O            9         0.361055   0.263811   0.295445   x
            x  O           10         0.861054   0.763812   0.295444   x
            x  O           11         0.638991   0.263735   0.204624   x
            x  O           12         0.138991   0.763736   0.204625   x
            x  O           13         0.638945   0.736189   0.704555   x
            x  O           14         0.138946   0.236188   0.704556   x
            x  O           15         0.361009   0.736265   0.795376   x
            x  O           16         0.861009   0.236264   0.795375   x
            x  O           17         0.354151   0.008475   1.005130   x
            x  O           18         0.854154   0.508472   1.005140   x
            x  O           19         0.645971   0.008472   0.494930   x
            x  O           20         0.145968   0.508469   0.494920   x
            x  O           21         0.645849   0.991525  -0.005130   x
            x  O           22         0.145846   0.491528  -0.005140   x
            x  O           23         0.354029   0.991528   0.505070   x
            x  O           24         0.854032   0.491531   0.505080   x
            x  Na           1        -0.000015   0.301226   0.250018   x
            x  Na           2         0.499985   0.801230   0.250018   x
            x  Na           3         0.000015   0.698774   0.749982   x
            x  Na           4         0.500015   0.198770   0.749982   x
            x  Al           1        -0.000026   0.906292   0.249975   x
            x  Al           2         0.499974   0.406292   0.249975   x
            x  Al           3         0.000026   0.093708   0.750025   x
            x  Al           4         0.500026   0.593708   0.750025   x
            x  Si           1         0.291064   0.093801   0.228499   x
            x  Si           2         0.791065   0.593800   0.228505   x
            x  Si           3         0.708902   0.093827   0.272066   x
            x  Si           4         0.208900   0.593826   0.272060   x
            x  Si           5         0.708936   0.906199   0.771501   x
            x  Si           6         0.208935   0.406200   0.771495   x
            x  Si           7         0.291098   0.906173   0.727934   x
            x  Si           8         0.791100   0.406174   0.727940   x
            xxxxxxxxxxxxxxxxxxxxxxxxxxxxxxxxxxxxxxxxxxxxxxxxxxxxxxxxxxxx
 
 
------------------------------------------------------------------------ <-- SCF
SCF loop      Energy                           Energy gain       Timer   <-- SCF
                                               per atom          (sec)   <-- SCF
------------------------------------------------------------------------ <-- SCF
Initial  -1.68460479E+004                                        310.04  <-- SCF
      1  -1.68460673E+004                    4.83520133E-004     329.80  <-- SCF
      2  -1.68460673E+004                    1.92461743E-007     349.61  <-- SCF
      3  -1.68460673E+004                    2.25343829E-009     369.29  <-- SCF
      4  -1.68460673E+004                    4.38514436E-011     389.57  <-- SCF
------------------------------------------------------------------------ <-- SCF
 
Final energy =  -16846.06726754     eV
(energy not corrected for finite basis set)
 
 
 *********************************** Forces ***********************************
 *                                                                            *
 *                        Cartesian components (eV/A)                         *
 * -------------------------------------------------------------------------- *
 *                   x                    y                    z              *
 *                                                                            *
 * O         1      0.00830              0.01321              0.00953         *
 * O         2      0.00814              0.01326              0.00950         *
 * O         3     -0.01132              0.00892             -0.00148         *
 * O         4     -0.01117              0.00896             -0.00144         *
 * O         5     -0.00830             -0.01321             -0.00953         *
 * O         6     -0.00814             -0.01326             -0.00950         *
 * O         7      0.01132             -0.00892              0.00148         *
 * O         8      0.01117             -0.00896              0.00144         *
 * O         9     -0.00096              0.01107              0.02588         *
 * O        10     -0.00092              0.01102              0.02589         *
 * O        11      0.01005              0.00919              0.00545         *
 * O        12      0.01001              0.00914              0.00544         *
 * O        13      0.00096             -0.01107             -0.02588         *
 * O        14      0.00092             -0.01102             -0.02589         *
 * O        15     -0.01005             -0.00919             -0.00545         *
 * O        16     -0.01001             -0.00914             -0.00544         *
 * O        17      0.05285              0.00580              0.00748         *
 * O        18      0.05274              0.00586              0.00743         *
 * O        19     -0.03308              0.00028              0.00634         *
 * O        20     -0.03297              0.00033              0.00639         *
 * O        21     -0.05285             -0.00580             -0.00748         *
 * O        22     -0.05274             -0.00586             -0.00743         *
 * O        23      0.03308             -0.00028             -0.00634         *
 * O        24      0.03297             -0.00033             -0.00639         *
 * Na        1     -0.01125             -0.01323              0.00317         *
 * Na        2     -0.01125             -0.01333              0.00317         *
 * Na        3      0.01125              0.01323             -0.00317         *
 * Na        4      0.01125              0.01333             -0.00317         *
 * Al        1     -0.01440              0.02802             -0.00170         *
 * Al        2     -0.01440              0.02806             -0.00170         *
 * Al        3      0.01440             -0.02802              0.00170         *
 * Al        4      0.01440             -0.02806              0.00170         *
 * Si        1     -0.01537              0.00446              0.01415         *
 * Si        2     -0.01543              0.00456              0.01414         *
 * Si        3      0.02215             -0.00901              0.00926         *
 * Si        4      0.02221             -0.00891              0.00926         *
 * Si        5      0.01537             -0.00446             -0.01415         *
 * Si        6      0.01543             -0.00456             -0.01414         *
 * Si        7     -0.02215              0.00901             -0.00926         *
 * Si        8     -0.02221              0.00891             -0.00926         *
 *                                                                            *
 ******************************************************************************
  
 +------------+-------------+-------------+-----------------+ <-- min BFGS
 |    Step    |   lambda    |   F.delta   |    enthalpy     | <-- min BFGS
 +------------+-------------+-------------+-----------------+ <-- min BFGS
 |  previous  |    0.000000 |    0.000059 |   -16835.333572 | <-- min BFGS
 | trial step |    1.000000 |    0.000042 |   -16835.334941 | <-- min BFGS
 |  line step |    3.366402 |    0.000000 |   -16835.336284 | <-- min BFGS
 +------------+-------------+-------------+-----------------+ <-- min BFGS
  
 BFGS: finished iteration     1 with enthalpy= -1.68353363E+004 eV
  
 +-----------+-----------------+-----------------+------------+-----+ <-- BFGS
 | Parameter |      value      |    tolerance    |    units   | OK? | <-- BFGS
 +-----------+-----------------+-----------------+------------+-----+ <-- BFGS
 |  dE/ion   |   6.780202E-005 |   2.000000E-007 |         eV | No  | <-- BFGS
 |  |F|max   |   5.369071E-002 |   1.000000E-003 |       eV/A | No  | <-- BFGS
 |  |dR|max  |   2.546032E-003 |   1.000000E-003 |          A | No  | <-- BFGS
 +-----------+-----------------+-----------------+------------+-----+ <-- BFGS
  

================================================================================
 Starting BFGS iteration          2 ...
================================================================================
 
Writing model to jadeite_4_30_GPa_cij__1__2.check
  
 +------------+-------------+-------------+-----------------+ <-- min BFGS
 |    Step    |   lambda    |   F.delta   |    enthalpy     | <-- min BFGS
 +------------+-------------+-------------+-----------------+ <-- min BFGS
 |  previous  |    0.000000 |    0.000006 |   -16835.336284 | <-- min BFGS
 +------------+-------------+-------------+-----------------+ <-- min BFGS
  

--------------------------------------------------------------------------------
 BFGS: starting iteration         2 with trial guess (lambda=  1.000000)
--------------------------------------------------------------------------------
 
                           -------------------------------
                                     Cell Contents
                           -------------------------------
 
            xxxxxxxxxxxxxxxxxxxxxxxxxxxxxxxxxxxxxxxxxxxxxxxxxxxxxxxxxxxx
            x  Element    Atom        Fractional coordinates of atoms  x
            x            Number           u          v          w      x
            x----------------------------------------------------------x
            x  O            1         0.109059   0.076961   0.129108   x
            x  O            2         0.609060   0.576960   0.129111   x
            x  O            3         0.890961   0.076941   0.370895   x
            x  O            4         0.390960   0.576940   0.370892   x
            x  O            5         0.890941   0.923039   0.870892   x
            x  O            6         0.390940   0.423040   0.870889   x
            x  O            7         0.109039   0.923059   0.629105   x
            x  O            8         0.609040   0.423060   0.629108   x
            x  O            9         0.361055   0.263820   0.295471   x
            x  O           10         0.861054   0.763820   0.295470   x
            x  O           11         0.638997   0.263740   0.204632   x
            x  O           12         0.138998   0.763741   0.204633   x
            x  O           13         0.638945   0.736180   0.704529   x
            x  O           14         0.138946   0.236180   0.704530   x
            x  O           15         0.361003   0.736260   0.795368   x
            x  O           16         0.861002   0.236259   0.795367   x
            x  O           17         0.354183   0.008479   1.005155   x
            x  O           18         0.854186   0.508475   1.005165   x
            x  O           19         0.645953   0.008472   0.494926   x
            x  O           20         0.145950   0.508469   0.494916   x
            x  O           21         0.645817   0.991521  -0.005155   x
            x  O           22         0.145814   0.491525  -0.005165   x
            x  O           23         0.354047   0.991528   0.505074   x
            x  O           24         0.854050   0.491531   0.505084   x
            x  Na           1        -0.000022   0.301218   0.250018   x
            x  Na           2         0.499978   0.801222   0.250018   x
            x  Na           3         0.000022   0.698782   0.749982   x
            x  Na           4         0.500022   0.198778   0.749982   x
            x  Al           1        -0.000035   0.906309   0.249968   x
            x  Al           2         0.499965   0.406309   0.249968   x
            x  Al           3         0.000035   0.093691   0.750032   x
            x  Al           4         0.500035   0.593691   0.750032   x
            x  Si           1         0.291061   0.093803   0.228521   x
            x  Si           2         0.791063   0.593802   0.228526   x
            x  Si           3         0.708907   0.093822   0.272086   x
            x  Si           4         0.208905   0.593821   0.272080   x
            x  Si           5         0.708939   0.906197   0.771479   x
            x  Si           6         0.208937   0.406198   0.771474   x
            x  Si           7         0.291093   0.906178   0.727914   x
            x  Si           8         0.791095   0.406179   0.727920   x
            xxxxxxxxxxxxxxxxxxxxxxxxxxxxxxxxxxxxxxxxxxxxxxxxxxxxxxxxxxxx
 
 
------------------------------------------------------------------------ <-- SCF
SCF loop      Energy                           Energy gain       Timer   <-- SCF
                                               per atom          (sec)   <-- SCF
------------------------------------------------------------------------ <-- SCF
Initial  -1.68460668E+004                                        401.83  <-- SCF
      1  -1.68460674E+004                    1.50136276E-005     421.75  <-- SCF
      2  -1.68460674E+004                    6.06023857E-009     441.53  <-- SCF
      3  -1.68460674E+004                    6.09434524E-011     462.09  <-- SCF
------------------------------------------------------------------------ <-- SCF
 
Final energy =  -16846.06741449     eV
(energy not corrected for finite basis set)
 
 
 *********************************** Forces ***********************************
 *                                                                            *
 *                        Cartesian components (eV/A)                         *
 * -------------------------------------------------------------------------- *
 *                   x                    y                    z              *
 *                                                                            *
 * O         1      0.00859              0.01235              0.00925         *
 * O         2      0.00846              0.01240              0.00922         *
 * O         3     -0.01113              0.00756             -0.00152         *
 * O         4     -0.01100              0.00761             -0.00149         *
 * O         5     -0.00859             -0.01235             -0.00925         *
 * O         6     -0.00846             -0.01240             -0.00922         *
 * O         7      0.01113             -0.00756              0.00152         *
 * O         8      0.01100             -0.00761              0.00149         *
 * O         9     -0.00197              0.01019              0.02531         *
 * O        10     -0.00193              0.01015              0.02533         *
 * O        11      0.01025              0.00839              0.00625         *
 * O        12      0.01021              0.00835              0.00623         *
 * O        13      0.00197             -0.01019             -0.02531         *
 * O        14      0.00193             -0.01015             -0.02533         *
 * O        15     -0.01025             -0.00839             -0.00625         *
 * O        16     -0.01021             -0.00835             -0.00623         *
 * O        17      0.04679              0.00563              0.00704         *
 * O        18      0.04668              0.00568              0.00699         *
 * O        19     -0.03103              0.00060              0.00516         *
 * O        20     -0.03092              0.00065              0.00521         *
 * O        21     -0.04679             -0.00563             -0.00704         *
 * O        22     -0.04668             -0.00568             -0.00699         *
 * O        23      0.03103             -0.00060             -0.00516         *
 * O        24      0.03092             -0.00065             -0.00521         *
 * Na        1     -0.01149             -0.01250              0.00280         *
 * Na        2     -0.01149             -0.01260              0.00280         *
 * Na        3      0.01149              0.01250             -0.00280         *
 * Na        4      0.01149              0.01260             -0.00280         *
 * Al        1     -0.01341              0.02494             -0.00163         *
 * Al        2     -0.01341              0.02497             -0.00163         *
 * Al        3      0.01341             -0.02494              0.00163         *
 * Al        4      0.01341             -0.02497              0.00163         *
 * Si        1     -0.01136              0.00480              0.00886         *
 * Si        2     -0.01143              0.00488              0.00885         *
 * Si        3      0.01659             -0.00811              0.00405         *
 * Si        4      0.01665             -0.00804              0.00406         *
 * Si        5      0.01136             -0.00480             -0.00886         *
 * Si        6      0.01143             -0.00488             -0.00885         *
 * Si        7     -0.01659              0.00811             -0.00405         *
 * Si        8     -0.01665              0.00804             -0.00406         *
 *                                                                            *
 ******************************************************************************
  
 +------------+-------------+-------------+-----------------+ <-- min BFGS
 |    Step    |   lambda    |   F.delta   |    enthalpy     | <-- min BFGS
 +------------+-------------+-------------+-----------------+ <-- min BFGS
 |  previous  |    0.000000 |    0.000006 |   -16835.336284 | <-- min BFGS
 | trial step |    1.000000 |    0.000005 |   -16835.336431 | <-- min BFGS
 +------------+-------------+-------------+-----------------+ <-- min BFGS
  

--------------------------------------------------------------------------------
 BFGS: improving iteration         2 with line minimization (lambda=  8.816644)
--------------------------------------------------------------------------------
 
                           -------------------------------
                                     Cell Contents
                           -------------------------------
 
            xxxxxxxxxxxxxxxxxxxxxxxxxxxxxxxxxxxxxxxxxxxxxxxxxxxxxxxxxxxx
            x  Element    Atom        Fractional coordinates of atoms  x
            x            Number           u          v          w      x
            x----------------------------------------------------------x
            x  O            1         0.109040   0.077020   0.129171   x
            x  O            2         0.609041   0.577019   0.129173   x
            x  O            3         0.890972   0.076977   0.370883   x
            x  O            4         0.390971   0.576975   0.370882   x
            x  O            5         0.890960   0.922980   0.870829   x
            x  O            6         0.390959   0.422981   0.870827   x
            x  O            7         0.109028   0.923023   0.629117   x
            x  O            8         0.609029   0.423025   0.629118   x
            x  O            9         0.361053   0.263885   0.295672   x
            x  O           10         0.861052   0.763885   0.295672   x
            x  O           11         0.639049   0.263778   0.204697   x
            x  O           12         0.139050   0.763779   0.204698   x
            x  O           13         0.638947   0.736115   0.704328   x
            x  O           14         0.138948   0.236115   0.704328   x
            x  O           15         0.360951   0.736222   0.795303   x
            x  O           16         0.860950   0.236221   0.795302   x
            x  O           17         0.354438   0.008506   1.005349   x
            x  O           18         0.854440   0.508503   1.005358   x
            x  O           19         0.645813   0.008474   0.494893   x
            x  O           20         0.145810   0.508471   0.494884   x
            x  O           21         0.645562   0.991494  -0.005349   x
            x  O           22         0.145560   0.491497  -0.005358   x
            x  O           23         0.354187   0.991526   0.505107   x
            x  O           24         0.854190   0.491529   0.505116   x
            x  Na           1        -0.000073   0.301158   0.250019   x
            x  Na           2         0.499927   0.801162   0.250019   x
            x  Na           3         0.000073   0.698842   0.749981   x
            x  Na           4         0.500073   0.198838   0.749981   x
            x  Al           1        -0.000103   0.906437   0.249917   x
            x  Al           2         0.499897   0.406437   0.249917   x
            x  Al           3         0.000103   0.093563   0.750083   x
            x  Al           4         0.500103   0.593563   0.750083   x
            x  Si           1         0.291044   0.093817   0.228687   x
            x  Si           2         0.791046   0.593816   0.228693   x
            x  Si           3         0.708944   0.093783   0.272245   x
            x  Si           4         0.208943   0.593782   0.272239   x
            x  Si           5         0.708956   0.906183   0.771313   x
            x  Si           6         0.208954   0.406184   0.771307   x
            x  Si           7         0.291056   0.906217   0.727755   x
            x  Si           8         0.791057   0.406218   0.727761   x
            xxxxxxxxxxxxxxxxxxxxxxxxxxxxxxxxxxxxxxxxxxxxxxxxxxxxxxxxxxxx
 
 
------------------------------------------------------------------------ <-- SCF
SCF loop      Energy                           Energy gain       Timer   <-- SCF
                                               per atom          (sec)   <-- SCF
------------------------------------------------------------------------ <-- SCF
Initial  -1.68460480E+004                                        470.89  <-- SCF
      1  -1.68460679E+004                    4.97832708E-004     490.83  <-- SCF
      2  -1.68460680E+004                    1.94160967E-007     510.54  <-- SCF
      3  -1.68460680E+004                    1.37285181E-009     530.35  <-- SCF
      4  -1.68460680E+004                    2.79195258E-011     552.74  <-- SCF
------------------------------------------------------------------------ <-- SCF
 
Final energy =  -16846.06795519     eV
(energy not corrected for finite basis set)
 
 
 *********************************** Forces ***********************************
 *                                                                            *
 *                        Cartesian components (eV/A)                         *
 * -------------------------------------------------------------------------- *
 *                   x                    y                    z              *
 *                                                                            *
 * O         1      0.01104              0.00560              0.00704         *
 * O         2      0.01109              0.00568              0.00703         *
 * O         3     -0.00978             -0.00300             -0.00189         *
 * O         4     -0.00983             -0.00292             -0.00188         *
 * O         5     -0.01104             -0.00560             -0.00704         *
 * O         6     -0.01109             -0.00568             -0.00703         *
 * O         7      0.00978              0.00300              0.00189         *
 * O         8      0.00983              0.00292              0.00188         *
 * O         9     -0.00991              0.00343              0.02088         *
 * O        10     -0.00984              0.00349              0.02091         *
 * O        11      0.01184              0.00217              0.01247         *
 * O        12      0.01177              0.00223              0.01244         *
 * O        13      0.00991             -0.00343             -0.02088         *
 * O        14      0.00984             -0.00349             -0.02091         *
 * O        15     -0.01184             -0.00217             -0.01247         *
 * O        16     -0.01177             -0.00223             -0.01244         *
 * O        17     -0.00061              0.00438              0.00374         *
 * O        18     -0.00074              0.00442              0.00369         *
 * O        19     -0.01509              0.00315             -0.00406         *
 * O        20     -0.01496              0.00319             -0.00401         *
 * O        21      0.00061             -0.00438             -0.00374         *
 * O        22      0.00074             -0.00442             -0.00369         *
 * O        23      0.01509             -0.00315              0.00406         *
 * O        24      0.01496             -0.00319              0.00401         *
 * Na        1     -0.01331             -0.00678             -0.00009         *
 * Na        2     -0.01331             -0.00687             -0.00009         *
 * Na        3      0.01331              0.00678              0.00009         *
 * Na        4      0.01331              0.00687              0.00009         *
 * Al        1     -0.00568              0.00085             -0.00107         *
 * Al        2     -0.00567              0.00085             -0.00107         *
 * Al        3      0.00568             -0.00085              0.00107         *
 * Al        4      0.00567             -0.00085              0.00107         *
 * Si        1      0.02000              0.00752             -0.03230         *
 * Si        2      0.01985              0.00741             -0.03233         *
 * Si        3     -0.02684             -0.00107             -0.03645         *
 * Si        4     -0.02668             -0.00119             -0.03641         *
 * Si        5     -0.02000             -0.00752              0.03230         *
 * Si        6     -0.01985             -0.00741              0.03233         *
 * Si        7      0.02684              0.00107              0.03645         *
 * Si        8      0.02668              0.00119              0.03641         *
 *                                                                            *
 ******************************************************************************
  
 +------------+-------------+-------------+-----------------+ <-- min BFGS
 |    Step    |   lambda    |   F.delta   |    enthalpy     | <-- min BFGS
 +------------+-------------+-------------+-----------------+ <-- min BFGS
 |  previous  |    0.000000 |    0.000006 |   -16835.336284 | <-- min BFGS
 | trial step |    1.000000 |    0.000005 |   -16835.336431 | <-- min BFGS
 |  line step |    8.816644 |    0.000000 |   -16835.336972 | <-- min BFGS
 +------------+-------------+-------------+-----------------+ <-- min BFGS
  
 BFGS: finished iteration     2 with enthalpy= -1.68353370E+004 eV
  
 +-----------+-----------------+-----------------+------------+-----+ <-- BFGS
 | Parameter |      value      |    tolerance    |    units   | OK? | <-- BFGS
 +-----------+-----------------+-----------------+------------+-----+ <-- BFGS
 |  dE/ion   |   1.719126E-005 |   2.000000E-007 |         eV | No  | <-- BFGS
 |  |F|max   |   4.527615E-002 |   1.000000E-003 |       eV/A | No  | <-- BFGS
 |  |dR|max  |   2.601596E-003 |   1.000000E-003 |          A | No  | <-- BFGS
 +-----------+-----------------+-----------------+------------+-----+ <-- BFGS
  

================================================================================
 Starting BFGS iteration          3 ...
================================================================================
 
Writing model to jadeite_4_30_GPa_cij__1__2.check
  
 +------------+-------------+-------------+-----------------+ <-- min BFGS
 |    Step    |   lambda    |   F.delta   |    enthalpy     | <-- min BFGS
 +------------+-------------+-------------+-----------------+ <-- min BFGS
 |  previous  |    0.000000 |    0.000004 |   -16835.336972 | <-- min BFGS
 +------------+-------------+-------------+-----------------+ <-- min BFGS
  

--------------------------------------------------------------------------------
 BFGS: starting iteration         3 with trial guess (lambda=  1.000000)
--------------------------------------------------------------------------------
 
                           -------------------------------
                                     Cell Contents
                           -------------------------------
 
            xxxxxxxxxxxxxxxxxxxxxxxxxxxxxxxxxxxxxxxxxxxxxxxxxxxxxxxxxxxx
            x  Element    Atom        Fractional coordinates of atoms  x
            x            Number           u          v          w      x
            x----------------------------------------------------------x
            x  O            1         0.109049   0.077028   0.129189   x
            x  O            2         0.609050   0.577027   0.129191   x
            x  O            3         0.890963   0.076978   0.370876   x
            x  O            4         0.390962   0.576977   0.370874   x
            x  O            5         0.890951   0.922972   0.870811   x
            x  O            6         0.390950   0.422973   0.870809   x
            x  O            7         0.109037   0.923022   0.629124   x
            x  O            8         0.609038   0.423023   0.629126   x
            x  O            9         0.361047   0.263891   0.295704   x
            x  O           10         0.861047   0.763891   0.295704   x
            x  O           11         0.639059   0.263783   0.204718   x
            x  O           12         0.139060   0.763783   0.204718   x
            x  O           13         0.638953   0.736109   0.704296   x
            x  O           14         0.138953   0.236109   0.704296   x
            x  O           15         0.360941   0.736217   0.795282   x
            x  O           16         0.860940   0.236217   0.795282   x
            x  O           17         0.354456   0.008511   1.005367   x
            x  O           18         0.854458   0.508508   1.005376   x
            x  O           19         0.645793   0.008476   0.494882   x
            x  O           20         0.145790   0.508473   0.494873   x
            x  O           21         0.645544   0.991489  -0.005367   x
            x  O           22         0.145542   0.491492  -0.005376   x
            x  O           23         0.354207   0.991524   0.505118   x
            x  O           24         0.854210   0.491527   0.505127   x
            x  Na           1        -0.000085   0.301150   0.250015   x
            x  Na           2         0.499915   0.801153   0.250015   x
            x  Na           3         0.000085   0.698850   0.749985   x
            x  Na           4         0.500085   0.198847   0.749985   x
            x  Al           1        -0.000111   0.906448   0.249911   x
            x  Al           2         0.499889   0.406448   0.249911   x
            x  Al           3         0.000111   0.093552   0.750089   x
            x  Al           4         0.500111   0.593552   0.750089   x
            x  Si           1         0.291050   0.093822   0.228668   x
            x  Si           2         0.791051   0.593822   0.228674   x
            x  Si           3         0.708938   0.093779   0.272213   x
            x  Si           4         0.208937   0.593778   0.272208   x
            x  Si           5         0.708950   0.906178   0.771332   x
            x  Si           6         0.208949   0.406178   0.771326   x
            x  Si           7         0.291062   0.906221   0.727787   x
            x  Si           8         0.791063   0.406222   0.727792   x
            xxxxxxxxxxxxxxxxxxxxxxxxxxxxxxxxxxxxxxxxxxxxxxxxxxxxxxxxxxxx
 
 
------------------------------------------------------------------------ <-- SCF
SCF loop      Energy                           Energy gain       Timer   <-- SCF
                                               per atom          (sec)   <-- SCF
------------------------------------------------------------------------ <-- SCF
Initial  -1.68460676E+004                                        562.78  <-- SCF
      1  -1.68460681E+004                    1.04842665E-005     582.42  <-- SCF
      2  -1.68460681E+004                    4.55041867E-009     602.07  <-- SCF
      3  -1.68460681E+004                    3.29465872E-011     623.47  <-- SCF
------------------------------------------------------------------------ <-- SCF
 
Final energy =  -16846.06805234     eV
(energy not corrected for finite basis set)
 
 
 *********************************** Forces ***********************************
 *                                                                            *
 *                        Cartesian components (eV/A)                         *
 * -------------------------------------------------------------------------- *
 *                   x                    y                    z              *
 *                                                                            *
 * O         1      0.00861              0.00464              0.00521         *
 * O         2      0.00863              0.00472              0.00521         *
 * O         3     -0.00782             -0.00434             -0.00283         *
 * O         4     -0.00785             -0.00427             -0.00283         *
 * O         5     -0.00861             -0.00464             -0.00521         *
 * O         6     -0.00863             -0.00472             -0.00521         *
 * O         7      0.00782              0.00434              0.00283         *
 * O         8      0.00785              0.00427              0.00283         *
 * O         9     -0.00907              0.00497              0.01856         *
 * O        10     -0.00903              0.00500              0.01858         *
 * O        11      0.01011              0.00291              0.01097         *
 * O        12      0.01006              0.00293              0.01094         *
 * O        13      0.00907             -0.00497             -0.01856         *
 * O        14      0.00903             -0.00500             -0.01858         *
 * O        15     -0.01011             -0.00291             -0.01097         *
 * O        16     -0.01006             -0.00293             -0.01094         *
 * O        17     -0.00109              0.00420              0.00268         *
 * O        18     -0.00122              0.00423              0.00263         *
 * O        19     -0.01159              0.00271             -0.00454         *
 * O        20     -0.01146              0.00274             -0.00449         *
 * O        21      0.00109             -0.00420             -0.00268         *
 * O        22      0.00122             -0.00423             -0.00263         *
 * O        23      0.01159             -0.00271              0.00454         *
 * O        24      0.01146             -0.00274              0.00449         *
 * Na        1     -0.01298             -0.00633              0.00054         *
 * Na        2     -0.01298             -0.00642              0.00054         *
 * Na        3      0.01298              0.00633             -0.00054         *
 * Na        4      0.01298              0.00642             -0.00054         *
 * Al        1     -0.00424             -0.00092             -0.00038         *
 * Al        2     -0.00424             -0.00093             -0.00038         *
 * Al        3      0.00424              0.00092              0.00038         *
 * Al        4      0.00424              0.00093              0.00038         *
 * Si        1      0.02238              0.00559             -0.02402         *
 * Si        2      0.02227              0.00551             -0.02405         *
 * Si        3     -0.02871             -0.00163             -0.02883         *
 * Si        4     -0.02860             -0.00170             -0.02880         *
 * Si        5     -0.02238             -0.00559              0.02402         *
 * Si        6     -0.02227             -0.00551              0.02405         *
 * Si        7      0.02871              0.00163              0.02883         *
 * Si        8      0.02860              0.00170              0.02880         *
 *                                                                            *
 ******************************************************************************
  
 +------------+-------------+-------------+-----------------+ <-- min BFGS
 |    Step    |   lambda    |   F.delta   |    enthalpy     | <-- min BFGS
 +------------+-------------+-------------+-----------------+ <-- min BFGS
 |  previous  |    0.000000 |    0.000004 |   -16835.336972 | <-- min BFGS
 | trial step |    1.000000 |    0.000003 |   -16835.337069 | <-- min BFGS
 +------------+-------------+-------------+-----------------+ <-- min BFGS
  

--------------------------------------------------------------------------------
 BFGS: improving iteration         3 with line minimization (lambda=  6.260380)
--------------------------------------------------------------------------------
 
                           -------------------------------
                                     Cell Contents
                           -------------------------------
 
            xxxxxxxxxxxxxxxxxxxxxxxxxxxxxxxxxxxxxxxxxxxxxxxxxxxxxxxxxxxx
            x  Element    Atom        Fractional coordinates of atoms  x
            x            Number           u          v          w      x
            x----------------------------------------------------------x
            x  O            1         0.109097   0.077071   0.129280   x
            x  O            2         0.609098   0.577070   0.129282   x
            x  O            3         0.890912   0.076987   0.370835   x
            x  O            4         0.390912   0.576986   0.370833   x
            x  O            5         0.890903   0.922929   0.870720   x
            x  O            6         0.390902   0.422930   0.870718   x
            x  O            7         0.109088   0.923013   0.629165   x
            x  O            8         0.609088   0.423014   0.629167   x
            x  O            9         0.361017   0.263922   0.295873   x
            x  O           10         0.861017   0.763923   0.295873   x
            x  O           11         0.639111   0.263807   0.204825   x
            x  O           12         0.139112   0.763808   0.204825   x
            x  O           13         0.638983   0.736078   0.704127   x
            x  O           14         0.138983   0.236077   0.704127   x
            x  O           15         0.360889   0.736193   0.795175   x
            x  O           16         0.860888   0.236192   0.795175   x
            x  O           17         0.354553   0.008535   1.005461   x
            x  O           18         0.854555   0.508532   1.005470   x
            x  O           19         0.645688   0.008486   0.494826   x
            x  O           20         0.145686   0.508483   0.494818   x
            x  O           21         0.645447   0.991465  -0.005461   x
            x  O           22         0.145445   0.491468  -0.005470   x
            x  O           23         0.354312   0.991514   0.505174   x
            x  O           24         0.854314   0.491517   0.505182   x
            x  Na           1        -0.000144   0.301103   0.249992   x
            x  Na           2         0.499856   0.801107   0.249992   x
            x  Na           3         0.000144   0.698897   0.750008   x
            x  Na           4         0.500144   0.198893   0.750008   x
            x  Al           1        -0.000154   0.906505   0.249877   x
            x  Al           2         0.499846   0.406506   0.249877   x
            x  Al           3         0.000154   0.093495   0.750123   x
            x  Al           4         0.500154   0.593494   0.750123   x
            x  Si           1         0.291077   0.093854   0.228570   x
            x  Si           2         0.791077   0.593853   0.228575   x
            x  Si           3         0.708904   0.093758   0.272045   x
            x  Si           4         0.208903   0.593757   0.272040   x
            x  Si           5         0.708923   0.906146   0.771430   x
            x  Si           6         0.208923   0.406147   0.771425   x
            x  Si           7         0.291096   0.906242   0.727955   x
            x  Si           8         0.791097   0.406243   0.727960   x
            xxxxxxxxxxxxxxxxxxxxxxxxxxxxxxxxxxxxxxxxxxxxxxxxxxxxxxxxxxxx
 
 
------------------------------------------------------------------------ <-- SCF
SCF loop      Energy                           Energy gain       Timer   <-- SCF
                                               per atom          (sec)   <-- SCF
------------------------------------------------------------------------ <-- SCF
Initial  -1.68460596E+004                                        632.25  <-- SCF
      1  -1.68460683E+004                    2.17452682E-004     651.92  <-- SCF
      2  -1.68460683E+004                    9.02931386E-008     671.59  <-- SCF
      3  -1.68460683E+004                    6.76565129E-010     691.98  <-- SCF
      4  -1.68460683E+004                    1.44624690E-011     714.13  <-- SCF
------------------------------------------------------------------------ <-- SCF
 
Final energy =  -16846.06828521     eV
(energy not corrected for finite basis set)
 
 
 *********************************** Forces ***********************************
 *                                                                            *
 *                        Cartesian components (eV/A)                         *
 * -------------------------------------------------------------------------- *
 *                   x                    y                    z              *
 *                                                                            *
 * O         1     -0.00419             -0.00040             -0.00439         *
 * O         2     -0.00427             -0.00037             -0.00439         *
 * O         3      0.00247             -0.01140             -0.00781         *
 * O         4      0.00255             -0.01137             -0.00781         *
 * O         5      0.00419              0.00040              0.00439         *
 * O         6      0.00427              0.00037              0.00439         *
 * O         7     -0.00247              0.01140              0.00781         *
 * O         8     -0.00255              0.01137              0.00781         *
 * O         9     -0.00466              0.01306              0.00628         *
 * O        10     -0.00473              0.01290              0.00630         *
 * O        11      0.00096              0.00676              0.00304         *
 * O        12      0.00103              0.00661              0.00302         *
 * O        13      0.00466             -0.01306             -0.00628         *
 * O        14      0.00473             -0.01290             -0.00630         *
 * O        15     -0.00096             -0.00676             -0.00304         *
 * O        16     -0.00103             -0.00661             -0.00302         *
 * O        17     -0.00373              0.00321             -0.00290         *
 * O        18     -0.00384              0.00324             -0.00296         *
 * O        19      0.00686              0.00041             -0.00707         *
 * O        20      0.00697              0.00043             -0.00702         *
 * O        21      0.00373             -0.00321              0.00290         *
 * O        22      0.00384             -0.00324              0.00296         *
 * O        23     -0.00686             -0.00041              0.00707         *
 * O        24     -0.00697             -0.00043              0.00702         *
 * Na        1     -0.01112             -0.00386              0.00381         *
 * Na        2     -0.01111             -0.00392              0.00381         *
 * Na        3      0.01112              0.00386             -0.00381         *
 * Na        4      0.01111              0.00392             -0.00381         *
 * Al        1      0.00327             -0.01022              0.00325         *
 * Al        2      0.00327             -0.01028              0.00326         *
 * Al        3     -0.00327              0.01022             -0.00325         *
 * Al        4     -0.00327              0.01028             -0.00326         *
 * Si        1      0.03492             -0.00452              0.01947         *
 * Si        2      0.03503             -0.00438              0.01946         *
 * Si        3     -0.03857             -0.00452              0.01119         *
 * Si        4     -0.03867             -0.00439              0.01121         *
 * Si        5     -0.03492              0.00452             -0.01947         *
 * Si        6     -0.03503              0.00438             -0.01946         *
 * Si        7      0.03857              0.00452             -0.01119         *
 * Si        8      0.03867              0.00439             -0.01121         *
 *                                                                            *
 ******************************************************************************
  
 +------------+-------------+-------------+-----------------+ <-- min BFGS
 |    Step    |   lambda    |   F.delta   |    enthalpy     | <-- min BFGS
 +------------+-------------+-------------+-----------------+ <-- min BFGS
 |  previous  |    0.000000 |    0.000004 |   -16835.336972 | <-- min BFGS
 | trial step |    1.000000 |    0.000003 |   -16835.337069 | <-- min BFGS
 |  line step |    6.260380 |    0.000000 |   -16835.337302 | <-- min BFGS
 +------------+-------------+-------------+-----------------+ <-- min BFGS
  
 BFGS: finished iteration     3 with enthalpy= -1.68353373E+004 eV
  
 +-----------+-----------------+-----------------+------------+-----+ <-- BFGS
 | Parameter |      value      |    tolerance    |    units   | OK? | <-- BFGS
 +-----------+-----------------+-----------------+------------+-----+ <-- BFGS
 |  dE/ion   |   8.250391E-006 |   2.000000E-007 |         eV | No  | <-- BFGS
 |  |F|max   |   4.050479E-002 |   1.000000E-003 |       eV/A | No  | <-- BFGS
 |  |dR|max  |   1.235034E-003 |   1.000000E-003 |          A | No  | <-- BFGS
 +-----------+-----------------+-----------------+------------+-----+ <-- BFGS
  

================================================================================
 Starting BFGS iteration          4 ...
================================================================================
 
Writing model to jadeite_4_30_GPa_cij__1__2.check
  
[...]
            x  O           20         0.145442   0.508323   0.494440   x
            x  O           21         0.645260   0.991267  -0.005885   x
            x  O           22         0.145259   0.491267  -0.005886   x
            x  O           23         0.354558   0.991677   0.505560   x
            x  O           24         0.854558   0.491677   0.505560   x
            x  Na           1        -0.000903   0.300724   0.250219   x
            x  Na           2         0.499097   0.800724   0.250218   x
            x  Na           3         0.000903   0.699276   0.749781   x
            x  Na           4         0.500903   0.199276   0.749782   x
            x  Al           1        -0.000123   0.906523   0.249927   x
            x  Al           2         0.499877   0.406523   0.249927   x
            x  Al           3         0.000123   0.093477   0.750073   x
            x  Al           4         0.500123   0.593477   0.750073   x
            x  Si           1         0.291268   0.094011   0.229083   x
            x  Si           2         0.791268   0.594011   0.229084   x
            x  Si           3         0.708563   0.093515   0.271652   x
            x  Si           4         0.208563   0.593516   0.271652   x
            x  Si           5         0.708732   0.905989   0.770917   x
            x  Si           6         0.208732   0.405989   0.770916   x
            x  Si           7         0.291437   0.906485   0.728348   x
            x  Si           8         0.791437   0.406484   0.728348   x
            xxxxxxxxxxxxxxxxxxxxxxxxxxxxxxxxxxxxxxxxxxxxxxxxxxxxxxxxxxxx
 
 
 BFGS: Final Enthalpy     = -1.68353380E+004 eV
 BFGS: Final <frequency>  =     958.20574 cm-1
 
 ***************************** Symmetrised Forces *****************************
 *                                                                            *
 *                        Cartesian components (eV/A)                         *
 * -------------------------------------------------------------------------- *
 *                   x                    y                    z              *
 *                                                                            *
 * O         1      0.00039              0.00067             -0.00012         *
 * O         2      0.00046              0.00070             -0.00012         *
 * O         3      0.00054             -0.00023             -0.00032         *
 * O         4      0.00046             -0.00020             -0.00032         *
 * O         5     -0.00039             -0.00067              0.00012         *
 * O         6     -0.00046             -0.00070              0.00012         *
 * O         7     -0.00054              0.00023              0.00032         *
 * O         8     -0.00046              0.00020              0.00032         *
 * O         9      0.00000             -0.00049             -0.00001         *
 * O        10      0.00007             -0.00036             -0.00001         *
 * O        11     -0.00028             -0.00033              0.00070         *
 * O        12     -0.00035             -0.00020              0.00070         *
 * O        13      0.00000              0.00049              0.00001         *
 * O        14     -0.00007              0.00036              0.00001         *
 * O        15      0.00028              0.00033             -0.00070         *
 * O        16      0.00035              0.00020             -0.00070         *
 * O        17      0.00007             -0.00060             -0.00005         *
 * O        18      0.00007             -0.00059             -0.00004         *
 * O        19     -0.00006             -0.00022              0.00010         *
 * O        20     -0.00007             -0.00021              0.00009         *
 * O        21     -0.00007              0.00060              0.00005         *
 * O        22     -0.00007              0.00059              0.00004         *
 * O        23      0.00006              0.00022             -0.00010         *
 * O        24      0.00007              0.00021             -0.00009         *
 * Na        1     -0.00040              0.00036             -0.00001         *
 * Na        2     -0.00040              0.00034             -0.00001         *
 * Na        3      0.00040             -0.00036              0.00001         *
 * Na        4      0.00040             -0.00034              0.00001         *
 * Al        1     -0.00030             -0.00048              0.00052         *
 * Al        2     -0.00030             -0.00045              0.00052         *
 * Al        3      0.00030              0.00048             -0.00052         *
 * Al        4      0.00030              0.00045             -0.00052         *
 * Si        1      0.00006             -0.00006             -0.00020         *
 * Si        2     -0.00009             -0.00020             -0.00022         *
 * Si        3      0.00011             -0.00025              0.00030         *
 * Si        4      0.00025             -0.00039              0.00032         *
 * Si        5     -0.00006              0.00006              0.00020         *
 * Si        6      0.00009              0.00020              0.00022         *
 * Si        7     -0.00011              0.00025             -0.00030         *
 * Si        8     -0.00025              0.00039             -0.00032         *
 *                                                                            *
 ******************************************************************************
 
 *********** Symmetrised Stress Tensor ***********
 *                                               *
 *          Cartesian components (GPa)           *
 * --------------------------------------------- *
 *             x             y             z     *
 *                                               *
 *  x     -5.087964     -0.044652     -0.016160  *
 *  y     -0.044652     -4.403012     -0.341703  *
 *  z     -0.016160     -0.341703     -4.328875  *
 *                                               *
 *  Pressure:    4.6066                          *
 *                                               *
 *************************************************
 
 Pseudo atomic calculation performed for O 2s2 2p4
 
 Converged in 36 iterations to a total energy of -429.6485 eV
 
 
 Pseudo atomic calculation performed for Na 2s2 2p6 3s1
 
 Converged in 33 iterations to a total energy of -1302.8467 eV
 
 
 Pseudo atomic calculation performed for Al 3s2 3p1
 
 Converged in 20 iterations to a total energy of -52.7392 eV
 
 
 Pseudo atomic calculation performed for Si 3s2 3p2
 
 Converged in 21 iterations to a total energy of -101.9044 eV
 
Charge spilling parameter for spin component 1 = 0.85%
 
     Atomic Populations (Mulliken)
     -----------------------------
Species   Ion     s      p      d      f     Total  Charge (e)
==============================================================
  O        1     1.85   5.24   0.00   0.00   7.08    -1.08
  O        2     1.85   5.24   0.00   0.00   7.08    -1.08
  O        3     1.84   5.24   0.00   0.00   7.08    -1.08
  O        4     1.84   5.24   0.00   0.00   7.08    -1.08
  O        5     1.85   5.24   0.00   0.00   7.08    -1.08
  O        6     1.85   5.24   0.00   0.00   7.08    -1.08
  O        7     1.84   5.24   0.00   0.00   7.08    -1.08
  O        8     1.84   5.24   0.00   0.00   7.08    -1.08
  O        9     1.84   5.29   0.00   0.00   7.12    -1.12
  O       10     1.84   5.29   0.00   0.00   7.12    -1.12
  O       11     1.84   5.29   0.00   0.00   7.12    -1.12
  O       12     1.84   5.29   0.00   0.00   7.12    -1.12
  O       13     1.84   5.29   0.00   0.00   7.12    -1.12
  O       14     1.84   5.29   0.00   0.00   7.12    -1.12
  O       15     1.84   5.29   0.00   0.00   7.12    -1.12
  O       16     1.84   5.29   0.00   0.00   7.12    -1.12
  O       17     1.83   5.30   0.00   0.00   7.12    -1.12
  O       18     1.83   5.30   0.00   0.00   7.12    -1.12
  O       19     1.83   5.30   0.00   0.00   7.12    -1.12
  O       20     1.83   5.30   0.00   0.00   7.12    -1.12
  O       21     1.83   5.30   0.00   0.00   7.12    -1.12
  O       22     1.83   5.30   0.00   0.00   7.12    -1.12
  O       23     1.83   5.30   0.00   0.00   7.12    -1.12
  O       24     1.83   5.30   0.00   0.00   7.12    -1.12
  Na       1     2.04   5.77   0.00   0.00   7.81     1.19
  Na       2     2.04   5.77   0.00   0.00   7.81     1.19
  Na       3     2.04   5.77   0.00   0.00   7.81     1.19
  Na       4     2.04   5.77   0.00   0.00   7.81     1.19
  Al       1     0.51   0.92   0.00   0.00   1.42     1.58
  Al       2     0.51   0.92   0.00   0.00   1.42     1.58
  Al       3     0.51   0.92   0.00   0.00   1.42     1.58
  Al       4     0.51   0.92   0.00   0.00   1.42     1.58
  Si       1     0.69   1.36   0.00   0.00   2.05     1.95
  Si       2     0.69   1.36   0.00   0.00   2.05     1.95
  Si       3     0.69   1.36   0.00   0.00   2.05     1.95
  Si       4     0.69   1.36   0.00   0.00   2.05     1.95
  Si       5     0.69   1.36   0.00   0.00   2.05     1.95
  Si       6     0.69   1.36   0.00   0.00   2.05     1.95
  Si       7     0.69   1.36   0.00   0.00   2.05     1.95
  Si       8     0.69   1.36   0.00   0.00   2.05     1.95
==============================================================
 
     Bond                     Population      Length (A)
============================================================
   O 014 --   Si 006               0.77        1.59147
   O 010 --   Si 002               0.77        1.59147
   O 009 --   Si 001               0.77        1.59148
   O 013 --   Si 005               0.77        1.59148
   O 012 --   Si 004               0.76        1.59212
   O 016 --   Si 008               0.76        1.59212
   O 011 --   Si 003               0.76        1.59212
   O 015 --   Si 007               0.76        1.59212
   O 021 --   Si 005               0.56        1.62970
   O 017 --   Si 001               0.56        1.62970
   O 018 --   Si 002               0.56        1.62970
   O 022 --   Si 006               0.56        1.62970
   O 019 --   Si 003               0.56        1.63038
   O 023 --   Si 007               0.56        1.63038
   O 024 --   Si 008               0.56        1.63038
   O 020 --   Si 004               0.56        1.63038
   O 001 --   Si 001               0.60        1.63545
   O 005 --   Si 005               0.60        1.63545
   O 006 --   Si 006               0.60        1.63545
   O 002 --   Si 002               0.60        1.63545
   O 007 --   Si 007               0.59        1.63566
   O 003 --   Si 003               0.59        1.63566
   O 004 --   Si 004               0.59        1.63566
   O 008 --   Si 008               0.59        1.63566
   O 017 --   Si 007               0.58        1.64021
   O 021 --   Si 003               0.58        1.64021
   O 022 --   Si 004               0.58        1.64021
   O 018 --   Si 008               0.58        1.64021
   O 019 --   Si 005               0.58        1.64158
   O 023 --   Si 001               0.58        1.64158
   O 020 --   Si 006               0.58        1.64158
   O 024 --   Si 002               0.58        1.64158
   O 015 --   Al 004               0.42        1.85344
   O 011 --   Al 002               0.42        1.85344
   O 016 --   Al 003               0.42        1.85345
   O 012 --   Al 001               0.42        1.85345
   O 009 --   Al 002               0.42        1.85436
   O 013 --   Al 004               0.42        1.85436
   O 010 --   Al 001               0.42        1.85437
   O 014 --   Al 003               0.42        1.85437
   O 005 --   Al 001               0.32        1.94103
   O 001 --   Al 003               0.32        1.94103
   O 006 --   Al 002               0.32        1.94104
   O 002 --   Al 004               0.32        1.94104
   O 007 --   Al 001               0.32        1.94161
   O 003 --   Al 003               0.32        1.94161
   O 008 --   Al 002               0.32        1.94161
   O 004 --   Al 004               0.32        1.94161
   O 004 --   Al 002               0.31        1.98736
   O 008 --   Al 004               0.31        1.98736
   O 003 --   Al 001               0.31        1.98736
   O 007 --   Al 003               0.31        1.98736
   O 006 --   Al 004               0.31        1.99503
   O 002 --   Al 002               0.31        1.99503
   O 005 --   Al 003               0.31        1.99503
   O 001 --   Al 001               0.31        1.99503
   O 007 --   Na 003              -0.02        2.34679
   O 003 --   Na 001              -0.02        2.34679
   O 008 --   Na 004              -0.02        2.34679
   O 004 --   Na 002              -0.02        2.34679
   O 005 --   Na 003              -0.02        2.34751
   O 001 --   Na 001              -0.02        2.34751
   O 002 --   Na 002              -0.02        2.34751
   O 006 --   Na 004              -0.02        2.34751
   O 024 --   Na 003              -0.04        2.36686
   O 020 --   Na 001              -0.04        2.36686
   O 023 --   Na 004              -0.04        2.36686
   O 019 --   Na 002              -0.04        2.36686
   O 018 --   Na 001              -0.04        2.36704
   O 022 --   Na 003              -0.04        2.36704
   O 017 --   Na 002              -0.04        2.36704
   O 021 --   Na 004              -0.04        2.36704
   O 016 --   Na 001              -0.06        2.40036
   O 012 --   Na 003              -0.06        2.40036
   O 011 --   Na 004              -0.06        2.40036
   O 015 --   Na 002              -0.06        2.40036
   O 010 --   Na 003              -0.05        2.40181
   O 014 --   Na 001              -0.05        2.40181
   O 013 --   Na 002              -0.05        2.40181
   O 009 --   Na 004              -0.05        2.40181
   O 002 --    O 006              -0.11        2.46783
   O 001 --    O 005              -0.11        2.46783
   O 004 --    O 008              -0.11        2.46939
   O 003 --    O 007              -0.11        2.46939
   O 012 --    O 022              -0.10        2.58288
   O 016 --    O 018              -0.10        2.58288
   O 015 --    O 017              -0.10        2.58288
   O 011 --    O 021              -0.10        2.58288
   O 014 --    O 020              -0.10        2.58780
   O 010 --    O 024              -0.10        2.58780
   O 009 --    O 023              -0.10        2.58780
   O 013 --    O 019              -0.10        2.58780
   O 018 --    O 024              -0.17        2.61343
   O 020 --    O 022              -0.17        2.61343
   O 017 --    O 023              -0.17        2.61343
   O 019 --    O 021              -0.17        2.61343
   O 005 --    O 021              -0.09        2.63742
   O 001 --    O 017              -0.09        2.63742
   O 002 --    O 018              -0.09        2.63742
   O 006 --    O 022              -0.09        2.63742
   O 003 --    O 019              -0.09        2.63790
   O 007 --    O 023              -0.09        2.63790
   O 004 --    O 020              -0.09        2.63790
   O 008 --    O 024              -0.09        2.63790
   O 003 --    O 021              -0.08        2.63924
   O 007 --    O 017              -0.08        2.63924
   O 004 --    O 022              -0.08        2.63924
   O 008 --    O 018              -0.08        2.63924
   O 005 --    O 019              -0.08        2.64059
   O 001 --    O 023              -0.08        2.64059
   O 006 --    O 020              -0.08        2.64059
   O 002 --    O 024              -0.08        2.64059
   O 014 --    O 022              -0.09        2.64648
   O 010 --    O 018              -0.09        2.64648
   O 013 --    O 021              -0.09        2.64648
   O 009 --    O 017              -0.09        2.64648
   O 012 --    O 020              -0.08        2.65338
   O 016 --    O 024              -0.08        2.65338
   O 011 --    O 019              -0.08        2.65338
   O 015 --    O 023              -0.08        2.65338
   O 007 --    O 012              -0.08        2.68364
   O 003 --    O 016              -0.08        2.68364
   O 004 --    O 015              -0.08        2.68364
   O 008 --    O 011              -0.08        2.68364
   O 005 --    O 010              -0.07        2.69498
   O 001 --    O 014              -0.07        2.69498
   O 002 --    O 013              -0.07        2.69498
   O 006 --    O 009              -0.07        2.69498
   O 008 --    O 013              -0.06        2.70486
   O 004 --    O 009              -0.06        2.70486
   O 003 --    O 010              -0.06        2.70486
   O 007 --    O 014              -0.06        2.70486
   O 002 --    O 004              -0.05        2.71130
   O 006 --    O 008              -0.05        2.71130
   O 005 --    O 007              -0.05        2.71130
   O 001 --    O 003              -0.05        2.71130
   O 023 --   Na 002              -0.02        2.71226
   O 019 --   Na 004              -0.02        2.71226
   O 020 --   Na 003              -0.02        2.71226
   O 024 --   Na 001              -0.02        2.71226
   O 006 --    O 015              -0.05        2.71439
   O 002 --    O 011              -0.05        2.71439
   O 005 --    O 016              -0.05        2.71439
   O 001 --    O 012              -0.05        2.71439
   O 021 --   Na 002              -0.02        2.73076
   O 017 --   Na 004              -0.02        2.73076
   O 022 --   Na 001              -0.02        2.73076
   O 018 --   Na 003              -0.02        2.73076
   O 018 --    O 022              -0.04        2.74943
   O 017 --    O 021              -0.04        2.74943
   O 020 --    O 024              -0.04        2.75175
   O 019 --    O 023              -0.04        2.75176
   O 004 --    O 012              -0.06        2.76700
   O 008 --    O 016              -0.06        2.76700
   O 003 --    O 011              -0.06        2.76700
   O 007 --    O 015              -0.06        2.76700
   O 006 --    O 014              -0.06        2.76860
   O 002 --    O 010              -0.06        2.76860
   O 001 --    O 009              -0.06        2.76860
   O 005 --    O 013              -0.06        2.76860
   O 013 --    O 015              -0.05        2.79079
   O 009 --    O 011              -0.05        2.79079
   O 014 --    O 016              -0.05        2.79079
   O 010 --    O 012              -0.05        2.79079
   O 008 --    O 009              -0.04        2.80254
   O 004 --    O 013              -0.04        2.80254
   O 007 --    O 010              -0.04        2.80254
   O 003 --    O 014              -0.04        2.80254
   O 002 --    O 015              -0.04        2.80886
   O 006 --    O 011              -0.04        2.80886
   O 001 --    O 016              -0.04        2.80886
   O 005 --    O 012              -0.04        2.80886
   O 016 --    O 019              -0.03        2.90404
   O 012 --    O 023              -0.03        2.90404
   O 015 --    O 020              -0.03        2.90404
   O 011 --    O 024              -0.03        2.90404
   O 010 --    O 021              -0.03        2.90821
   O 014 --    O 017              -0.03        2.90821
   O 009 --    O 022              -0.03        2.90821
   O 013 --    O 018              -0.03        2.90821
   O 002 --    O 008              -0.06        2.92732
   O 004 --    O 006              -0.06        2.92732
   O 003 --    O 005              -0.06        2.92732
   O 001 --    O 007              -0.06        2.92732
============================================================
 
 
Writing model to jadeite_4_30_GPa_cij__1__2.check
 
Writing analysis data to jadeite_4_30_GPa_cij__1__2.castep_bin
Initialisation time =      2.26 s
Calculation time    =   3330.08 s
Finalisation time   =      1.44 s
Total time          =   3333.77 s
Peak Memory Use     = 283396 kB
