 +-------------------------------------------------+
 |                                                 |
 |      CCC   AA    SSS  TTTTT  EEEEE  PPPP        |
 |     C     A  A  S       T    E      P   P       |
 |     C     AAAA   SS     T    EEE    PPPP        |
 |     C     A  A     S    T    E      P           |
 |      CCC  A  A  SSS     T    EEEEE  P           |
 |                                                 |
 +-------------------------------------------------+
 |                                                 |
 | Welcome to Academic Release CASTEP version 5.02 |
 | Ab Initio Total Energy Program                  |
 |                                                 |
 | Authors:                                        |
 | M. Segall, M. Probert, C. Pickard, P. Hasnip,   |
 | S. Clark, K. Refson, M. Payne                   |
 |                                                 |
 | Contributors:                                   |
 | P. Lindan, P. Haynes, J. White, V. Milman,      |
 | N. Govind, M. Gibson, P. Tulip, V. Cocula,      |
 | B. Montanari, D. Quigley, M. Glover,            |
 | L. Bernasconi, A. Perlov, M. Plummer            |
 |                                                 |
 | Copyright (c) 2000 - 2009                       |
 |                                                 |
 |     Distributed under the terms of an           |
 |     Agreement between the United Kingdom        |
 |     Car-Parrinello (UKCP) Consortium,           |
 |     Daresbury Laboratory and Accelrys, Inc.     |
 |                                                 |
 | Please cite                                     |
 |                                                 |
 |     "First principles methods using CASTEP"     |
 |                                                 |
 |         Zeitschrift fuer Kristallographie       |
 |           220(5-6) pp. 567-570 (2005)           |
 |                                                 |
 | S. J. Clark, M. D. Segall, C. J. Pickard,       |
 | P. J. Hasnip, M. J. Probert, K. Refson,         |
 | M. C. Payne                                     |
 |                                                 |
 |       in all publications arising from          |
 |              your use of CASTEP                 |
 |                                                 |
 +-------------------------------------------------+
 
 
 Pseudo atomic calculation performed for O 2s2 2p4
 
 Converged in 36 iterations to a total energy of -429.6485 eV
 
 
 Pseudo atomic calculation performed for Na 2s2 2p6 3s1
 
 Converged in 33 iterations to a total energy of -1302.8467 eV
 
 
 Pseudo atomic calculation performed for Al 3s2 3p1
 
 Converged in 20 iterations to a total energy of -52.7392 eV
 
 
 Pseudo atomic calculation performed for Si 3s2 3p2
 
 Converged in 21 iterations to a total energy of -101.9044 eV
 
Calculation parallelised over   36 nodes.
K-points are distributed over    6 groups, each containing    6 nodes.

 ************************************ Title ************************************
 

 ***************************** General Parameters ******************************
  
 output verbosity                               : normal  (1)
 write checkpoint data to                       : jadeite_4_30_GPa_cij__1__5.check
 type of calculation                            : geometry optimization
 stress calculation                             : on
 density difference calculation                 : off
 electron localisation func (ELF) calculation   : off
 Hirshfeld analysis                             : off
 unlimited duration calculation
 timing information                             : on
 memory usage estimate                          : on
 write final potential to formatted file        : off
 write final density to formatted file          : off
  
 output         length unit                     : A
 output           mass unit                     : amu
 output           time unit                     : ps
 output         charge unit                     : e
 output         energy unit                     : eV
 output          force unit                     : eV/A
 output       velocity unit                     : A/ps
 output       pressure unit                     : GPa
 output     inv_length unit                     : 1/A
 output      frequency unit                     : cm-1
 output force constant unit                     : eV/A**2
 output         volume unit                     : A**3
 output   IR intensity unit                     : (D/A)**2/amu
 output         dipole unit                     : D
 output         efield unit                     : eV/A/e
  
 wavefunctions paging                           : none
 data distribution                              : optimal for this architecture
 optimization strategy                          : maximize speed(+++)

 *********************** Exchange-Correlation Parameters ***********************
  
 using functional                               : Perdew Burke Ernzerhof
 Divergence correction                          : off
 DFT+D: Semi-empirical dispersion correction    : off

 ************************* Pseudopotential Parameters **************************
  
 pseudopotential representation                 : reciprocal space
 <beta|phi> representation                      : reciprocal space

 **************************** Basis Set Parameters *****************************
  
 plane wave basis set cut-off                   :   700.0000   eV
 finite basis set correction                    : none

 **************************** Electronic Parameters ****************************
  
 number of  electrons                           :  224.0    
 net charge of system                           :  0.000    
 net spin   of system                           :  0.000    
 number of  up  spins                           :  112.0    
 number of down spins                           :  112.0    
 treating system as non-spin-polarized
 number of bands                                :        112

 ********************* Electronic Minimization Parameters **********************
  
 Method: Treating system as non-metallic,
         and number of  SD  steps               :          1
         and number of  CG  steps               :          4
  
 total energy / atom convergence tol.           : 0.1000E-07   eV
 max force / atom convergence tol.              : ignored
 convergence tolerance window                   :          3   cycles
 max. number of SCF cycles                      :        100

 *********************** Population Analysis Parameters ************************
  
 Population analysis with cutoff                :  3.000       A

 ********************** Geometry Optimization Parameters ***********************
  
 optimization method                            : BFGS
 variable cell method                           : fixed basis quality
 max. number of steps                           :        300
 estimated bulk modulus                         :  500.0       GPa
 estimated <frequency>                          :  1668.       cm-1
 line minimiser tolerance                       :     0.4000
 total energy convergence tolerance             : 0.2000E-06   eV/atom
        max ionic |force| tolerance             : 0.1000E-02   eV/A
 max ionic |displacement| tolerance             : 0.1000E-02   A
   max |stress component| tolerance             : 0.1000E-02   GPa
 convergence tolerance window                   :          2   steps
 backup results every                           :          1   steps

 *******************************************************************************
  
 
                           -------------------------------
                                      Unit Cell
                           -------------------------------
        Real Lattice(A)                      Reciprocal Lattice(1/A)
   9.0813393   0.0000000  -2.8290832        0.6918787   0.0000000   0.0000000
   0.0000000   8.5603493   0.1000000        0.0000000   0.7339870   0.0000000
   0.0000000   0.0000000   5.2199179        0.3749834  -0.0140613   1.2036943
 
                       Lattice parameters(A)       Cell Angles
                    a =    9.511805          alpha =   89.330715
                    b =    8.560933          beta  =  107.303226
                    c =    5.219918          gamma =   90.199061
 
                       Current cell volume =  405.793475       A**3
 
                           -------------------------------
                                     Cell Contents
                           -------------------------------
                         Total number of ions in cell =   40
                      Total number of species in cell =    4
                        Max number of any one species =   24
 
            xxxxxxxxxxxxxxxxxxxxxxxxxxxxxxxxxxxxxxxxxxxxxxxxxxxxxxxxxxxx
            x  Element    Atom        Fractional coordinates of atoms  x
            x            Number           u          v          w      x
            x----------------------------------------------------------x
            x  O            1         0.109277   0.076953   0.129205   x
            x  O            2         0.609279   0.576952   0.129208   x
            x  O            3         0.890723   0.076953   0.370795   x
            x  O            4         0.390721   0.576952   0.370792   x
            x  O            5         0.890723   0.923047   0.870795   x
            x  O            6         0.390721   0.423048   0.870792   x
            x  O            7         0.109277   0.923047   0.629205   x
            x  O            8         0.609279   0.423048   0.629208   x
            x  O            9         0.361047   0.263746   0.295383   x
            x  O           10         0.861046   0.763747   0.295382   x
            x  O           11         0.638953   0.263746   0.204617   x
            x  O           12         0.138954   0.763747   0.204618   x
            x  O           13         0.638953   0.736254   0.704617   x
            x  O           14         0.138954   0.236253   0.704618   x
            x  O           15         0.361047   0.736254   0.795383   x
            x  O           16         0.861046   0.236253   0.795382   x
            x  O           17         0.354029   0.008469   1.005059   x
            x  O           18         0.854032   0.508466   1.005069   x
            x  O           19         0.645971   0.008469   0.494941   x
            x  O           20         0.145968   0.508466   0.494931   x
            x  O           21         0.645971   0.991530  -0.005059   x
            x  O           22         0.145968   0.491534  -0.005069   x
            x  O           23         0.354029   0.991530   0.505059   x
            x  O           24         0.854032   0.491534   0.505069   x
            x  Na           1         0.000000   0.301230   0.250000   x
            x  Na           2         0.500000   0.801235   0.250000   x
            x  Na           3         0.000000   0.698770   0.750000   x
            x  Na           4         0.500000   0.198765   0.750000   x
            x  Al           1         0.000000   0.906276   0.250000   x
            x  Al           2         0.500000   0.406277   0.250000   x
            x  Al           3         0.000000   0.093724   0.750000   x
            x  Al           4         0.500000   0.593723   0.750000   x
            x  Si           1         0.290869   0.093825   0.228100   x
            x  Si           2         0.790871   0.593824   0.228106   x
            x  Si           3         0.709131   0.093825   0.271900   x
            x  Si           4         0.209129   0.593824   0.271894   x
            x  Si           5         0.709131   0.906176   0.771900   x
            x  Si           6         0.209129   0.406176   0.771894   x
            x  Si           7         0.290869   0.906176   0.728100   x
            x  Si           8         0.790871   0.406176   0.728106   x
            xxxxxxxxxxxxxxxxxxxxxxxxxxxxxxxxxxxxxxxxxxxxxxxxxxxxxxxxxxxx
 
 
                         No user defined ionic velocities
 
                           -------------------------------
                                   Details of Species
                           -------------------------------
 
                               Mass of species in AMU
                                    O   15.9994000
                                    Na   22.9897700
                                    Al   26.9815400
                                    Si   28.0855000
 
                          Electric Quadrupole Moment (Barn)
                                    O   -0.0255800 Isotope 17
                                    Na    0.1040000 Isotope 23
                                    Al    0.1466000 Isotope 27
                                    Si    1.0000000 No Isotope Defined
 
                          Files used for pseudopotentials:
                                    O O_00PBE.usp
                                    Na Na_00PBE.usp
                                    Al Al_00PBE.usp
                                    Si Si_00PBE.usp
 
                           -------------------------------
                              k-Points For BZ Sampling
                           -------------------------------
                       MP grid size for SCF calculation is  2  2  3
                         Number of kpoints used = 6
 
             +++++++++++++++++++++++++++++++++++++++++++++++++++++++
             +  Number       Fractional coordinates        Weight  +
             +-----------------------------------------------------+
             +     1  -0.250000   0.250000   0.333333   0.1666667  +
             +     2  -0.250000   0.250000   0.000000   0.1666667  +
             +     3   0.250000  -0.250000   0.333333   0.1666667  +
             +     4  -0.250000  -0.250000   0.333333   0.1666667  +
             +     5   0.250000   0.250000   0.000000   0.1666667  +
             +     6   0.250000   0.250000   0.333333   0.1666667  +
             +++++++++++++++++++++++++++++++++++++++++++++++++++++++
 
                           -------------------------------
                               Symmetry and Constraints
                           -------------------------------
 
                      Number of symmetry operations   = 2
                      Number of ionic constraints     = 3
                      Maximum deviation from symmetry = 0.100823E-14     ANG
               Point group of crystal =     2: Ci, -1, -1
           Set iprint > 1 for details on symmetry rotations/translations
 
                          Centre of mass is constrained
             Set iprint > 1 for details of linear ionic constraints
 
                         Number of cell constraints= 6
                         Cell constraints are:  0 0 0 0 0 0
 
                         External pressure/stress (GPa)
                          4.30000   0.00000   0.00000
                                    4.30000   0.00000
                                              4.30000
  
+---------------- MEMORY AND SCRATCH DISK ESTIMATES PER NODE -----------------+
|                                                     Memory          Disk    |
| Model and support data                               91.7 MB         0.0 MB |
| Electronic energy minimisation requirements          32.8 MB         0.0 MB |
|                                               ----------------------------- |
| Approx. total storage required per node             124.5 MB         0.0 MB |
|                                                                             |
| Requirements will fluctuate during execution and may exceed these estimates |
+-----------------------------------------------------------------------------+
------------------------------------------------------------------------ <-- SCF
SCF loop      Energy                           Energy gain       Timer   <-- SCF
                                               per atom          (sec)   <-- SCF
------------------------------------------------------------------------ <-- SCF
Initial  -1.59007217E+003                                          6.48  <-- SCF
      1  -1.65336913E+004                    3.73590478E+002      25.69  <-- SCF
      2  -1.68164033E+004                    7.06780022E+000      44.92  <-- SCF
      3  -1.68442600E+004                    6.96416496E-001      63.57  <-- SCF
      4  -1.68461185E+004                    4.64642989E-002      82.05  <-- SCF
      5  -1.68461383E+004                    4.93424442E-004     100.34  <-- SCF
      6  -1.68461387E+004                    1.02421206E-005     118.59  <-- SCF
      7  -1.68461387E+004                    3.17176022E-007     136.98  <-- SCF
      8  -1.68461387E+004                    1.04888477E-008     154.87  <-- SCF
      9  -1.68461387E+004                    3.52358337E-010     172.89  <-- SCF
     10  -1.68461387E+004                    1.26063233E-011     192.73  <-- SCF
------------------------------------------------------------------------ <-- SCF
 
Final energy =  -16846.13869821     eV
(energy not corrected for finite basis set)
 
 
Writing model to jadeite_4_30_GPa_cij__1__5.check
 
+---------------- MEMORY AND SCRATCH DISK ESTIMATES PER NODE -----------------+
|                                                     Memory          Disk    |
| Model and support data                               84.8 MB         0.0 MB |
| Geometry minimisation requirements                   38.2 MB         0.0 MB |
|                                               ----------------------------- |
| Approx. total storage required per node             122.9 MB         0.0 MB |
|                                                                             |
| Requirements will fluctuate during execution and may exceed these estimates |
+-----------------------------------------------------------------------------+
 
 
 *********************************** Forces ***********************************
 *                                                                            *
 *                        Cartesian components (eV/A)                         *
 * -------------------------------------------------------------------------- *
 *                   x                    y                    z              *
 *                                                                            *
 * O         1      0.32303             -0.00248             -0.01100         *
 * O         2      0.32288             -0.00243             -0.01104         *
 * O         3     -0.35892              0.02473              0.02624         *
 * O         4     -0.35876              0.02479              0.02627         *
 * O         5     -0.32303              0.00248              0.01100         *
 * O         6     -0.32288              0.00243              0.01104         *
 * O         7      0.35892             -0.02473             -0.02624         *
 * O         8      0.35876             -0.02479             -0.02627         *
 * O         9     -0.01587             -0.10082             -0.05349         *
 * O        10     -0.01574             -0.10073             -0.05348         *
 * O        11     -0.05513              0.01133              0.00776         *
 * O        12     -0.05526              0.01140              0.00776         *
 * O        13      0.01587              0.10082              0.05349         *
 * O        14      0.01574              0.10073              0.05348         *
 * O        15      0.05513             -0.01133             -0.00776         *
 * O        16      0.05526             -0.01140             -0.00776         *
 * O        17     -0.19632             -0.00747             -0.00361         *
 * O        18     -0.19638             -0.00739             -0.00365         *
 * O        19      0.00114             -0.00239              0.00892         *
 * O        20      0.00119             -0.00233              0.00897         *
 * O        21      0.19632              0.00747              0.00361         *
 * O        22      0.19638              0.00739              0.00365         *
 * O        23     -0.00114              0.00239             -0.00892         *
 * O        24     -0.00119              0.00233             -0.00897         *
 * Na        1      0.02392              0.01003             -0.02604         *
 * Na        2      0.02391              0.00991             -0.02603         *
 * Na        3     -0.02392             -0.01003              0.02604         *
 * Na        4     -0.02391             -0.00991              0.02603         *
 * Al        1      0.04092             -0.02192              0.01054         *
 * Al        2      0.04092             -0.02181              0.01054         *
 * Al        3     -0.04092              0.02192             -0.01054         *
 * Al        4     -0.04092              0.02181             -0.01054         *
 * Si        1     -0.29144              0.04736             -0.27760         *
 * Si        2     -0.29165              0.04737             -0.27762         *
 * Si        3      0.34710              0.00995             -0.27471         *
 * Si        4      0.34731              0.00999             -0.27469         *
 * Si        5      0.29144             -0.04736              0.27760         *
 * Si        6      0.29165             -0.04737              0.27762         *
 * Si        7     -0.34710             -0.00995              0.27471         *
 * Si        8     -0.34731             -0.00999              0.27469         *
 *                                                                            *
 ******************************************************************************
 BFGS: finished iteration     0 with enthalpy= -1.68352478E+004 eV
  
 +-----------+-----------------+-----------------+------------+-----+ <-- BFGS
 | Parameter |      value      |    tolerance    |    units   | OK? | <-- BFGS
 +-----------+-----------------+-----------------+------------+-----+ <-- BFGS
 |  dE/ion   |   0.000000E+000 |   2.000000E-007 |         eV | No  | <-- BFGS
 |  |F|max   |   4.429174E-001 |   1.000000E-003 |       eV/A | No  | <-- BFGS
 |  |dR|max  |   0.000000E+000 |   1.000000E-003 |          A | No  | <-- BFGS
 +-----------+-----------------+-----------------+------------+-----+ <-- BFGS
  

================================================================================
 Starting BFGS iteration          1 ...
================================================================================
 
Writing model to jadeite_4_30_GPa_cij__1__5.check
  
 +------------+-------------+-------------+-----------------+ <-- min BFGS
 |    Step    |   lambda    |   F.delta   |    enthalpy     | <-- min BFGS
 +------------+-------------+-------------+-----------------+ <-- min BFGS
 |  previous  |    0.000000 |    0.000465 |   -16835.247814 | <-- min BFGS
 +------------+-------------+-------------+-----------------+ <-- min BFGS
  

--------------------------------------------------------------------------------
 BFGS: starting iteration         1 with trial guess (lambda=  1.000000)
--------------------------------------------------------------------------------
 
                           -------------------------------
                                     Cell Contents
                           -------------------------------
 
            xxxxxxxxxxxxxxxxxxxxxxxxxxxxxxxxxxxxxxxxxxxxxxxxxxxxxxxxxxxx
            x  Element    Atom        Fractional coordinates of atoms  x
            x            Number           u          v          w      x
            x----------------------------------------------------------x
            x  O            1         0.109449   0.076952   0.129288   x
            x  O            2         0.609451   0.576950   0.129291   x
            x  O            3         0.890532   0.076967   0.370715   x
            x  O            4         0.390530   0.576966   0.370713   x
            x  O            5         0.890551   0.923048   0.870712   x
            x  O            6         0.390549   0.423050   0.870709   x
            x  O            7         0.109468   0.923033   0.629285   x
            x  O            8         0.609470   0.423034   0.629287   x
            x  O            9         0.361039   0.263690   0.295330   x
            x  O           10         0.861038   0.763690   0.295329   x
            x  O           11         0.638924   0.263753   0.204608   x
            x  O           12         0.138925   0.763753   0.204609   x
            x  O           13         0.638961   0.736310   0.704670   x
            x  O           14         0.138962   0.236310   0.704671   x
            x  O           15         0.361076   0.736247   0.795392   x
            x  O           16         0.861075   0.236247   0.795391   x
            x  O           17         0.353924   0.008465   1.004999   x
            x  O           18         0.853927   0.508462   1.005009   x
            x  O           19         0.645972   0.008468   0.494950   x
            x  O           20         0.145969   0.508465   0.494940   x
            x  O           21         0.646076   0.991535  -0.004999   x
            x  O           22         0.146073   0.491538  -0.005009   x
            x  O           23         0.354028   0.991532   0.505050   x
            x  O           24         0.854031   0.491535   0.505060   x
            x  Na           1         0.000013   0.301236   0.249983   x
            x  Na           2         0.500013   0.801240   0.249983   x
            x  Na           3        -0.000013   0.698764   0.750017   x
            x  Na           4         0.499987   0.198760   0.750017   x
            x  Al           1         0.000022   0.906264   0.250022   x
            x  Al           2         0.500022   0.406264   0.250022   x
            x  Al           3        -0.000022   0.093736   0.749978   x
            x  Al           4         0.499978   0.593736   0.749978   x
            x  Si           1         0.290714   0.093851   0.227758   x
            x  Si           2         0.790716   0.593850   0.227764   x
            x  Si           3         0.709316   0.093830   0.271746   x
            x  Si           4         0.209314   0.593829   0.271740   x
            x  Si           5         0.709286   0.906149   0.772242   x
            x  Si           6         0.209284   0.406150   0.772236   x
            x  Si           7         0.290684   0.906170   0.728254   x
            x  Si           8         0.790686   0.406171   0.728260   x
            xxxxxxxxxxxxxxxxxxxxxxxxxxxxxxxxxxxxxxxxxxxxxxxxxxxxxxxxxxxx
 
 
------------------------------------------------------------------------ <-- SCF
SCF loop      Energy                           Energy gain       Timer   <-- SCF
                                               per atom          (sec)   <-- SCF
------------------------------------------------------------------------ <-- SCF
Initial  -1.68461244E+004                                        202.95  <-- SCF
      1  -1.68461496E+004                    6.29352259E-004     220.86  <-- SCF
      2  -1.68461496E+004                    2.52191895E-007     238.76  <-- SCF
      3  -1.68461496E+004                    2.87656189E-009     256.60  <-- SCF
      4  -1.68461496E+004                    5.81592338E-011     275.17  <-- SCF
------------------------------------------------------------------------ <-- SCF
 
Final energy =  -16846.14962862     eV
(energy not corrected for finite basis set)
 
 
 *********************************** Forces ***********************************
 *                                                                            *
 *                        Cartesian components (eV/A)                         *
 * -------------------------------------------------------------------------- *
 *                   x                    y                    z              *
 *                                                                            *
 * O         1      0.23040             -0.01133             -0.01586         *
 * O         2      0.23025             -0.01127             -0.01590         *
 * O         3     -0.25457              0.01223              0.01968         *
 * O         4     -0.25442              0.01228              0.01971         *
 * O         5     -0.23040              0.01133              0.01586         *
 * O         6     -0.23025              0.01127              0.01590         *
 * O         7      0.25457             -0.01223             -0.01968         *
 * O         8      0.25442             -0.01228             -0.01971         *
 * O         9     -0.01043             -0.07963             -0.06009         *
 * O        10     -0.01033             -0.07958             -0.06008         *
 * O        11     -0.04759              0.00149             -0.00069         *
 * O        12     -0.04769              0.00152             -0.00070         *
 * O        13      0.01043              0.07963              0.06009         *
 * O        14      0.01033              0.07958              0.06008         *
 * O        15      0.04759             -0.00149              0.00069         *
 * O        16      0.04769             -0.00152              0.00070         *
 * O        17     -0.18505             -0.00991             -0.00880         *
 * O        18     -0.18512             -0.00983             -0.00884         *
 * O        19      0.03086             -0.00166              0.00064         *
 * O        20      0.03093             -0.00160              0.00068         *
 * O        21      0.18505              0.00991              0.00880         *
 * O        22      0.18512              0.00983              0.00884         *
 * O        23     -0.03086              0.00166             -0.00064         *
 * O        24     -0.03093              0.00160             -0.00068         *
 * Na        1      0.02627              0.01889             -0.02154         *
 * Na        2      0.02627              0.01878             -0.02154         *
 * Na        3     -0.02627             -0.01889              0.02154         *
 * Na        4     -0.02627             -0.01878              0.02154         *
 * Al        1      0.04135             -0.03831              0.00820         *
 * Al        2      0.04134             -0.03823              0.00821         *
 * Al        3     -0.04135              0.03831             -0.00820         *
 * Al        4     -0.04134              0.03823             -0.00821         *
 * Si        1     -0.20174              0.02696             -0.20711         *
 * Si        2     -0.20190              0.02700             -0.20713         *
 * Si        3      0.23579              0.01221             -0.20085         *
 * Si        4      0.23596              0.01226             -0.20084         *
 * Si        5      0.20174             -0.02696              0.20711         *
 * Si        6      0.20190             -0.02700              0.20713         *
 * Si        7     -0.23579             -0.01221              0.20085         *
 * Si        8     -0.23596             -0.01226              0.20084         *
 *                                                                            *
 ******************************************************************************
  
 +------------+-------------+-------------+-----------------+ <-- min BFGS
 |    Step    |   lambda    |   F.delta   |    enthalpy     | <-- min BFGS
 +------------+-------------+-------------+-----------------+ <-- min BFGS
 |  previous  |    0.000000 |    0.000465 |   -16835.247814 | <-- min BFGS
 | trial step |    1.000000 |    0.000338 |   -16835.258744 | <-- min BFGS
 +------------+-------------+-------------+-----------------+ <-- min BFGS
  

--------------------------------------------------------------------------------
 BFGS: improving iteration         1 with line minimization (lambda=  3.679335)
--------------------------------------------------------------------------------
 
                           -------------------------------
                                     Cell Contents
                           -------------------------------
 
            xxxxxxxxxxxxxxxxxxxxxxxxxxxxxxxxxxxxxxxxxxxxxxxxxxxxxxxxxxxx
            x  Element    Atom        Fractional coordinates of atoms  x
            x            Number           u          v          w      x
            x----------------------------------------------------------x
            x  O            1         0.109910   0.076948   0.129511   x
            x  O            2         0.609912   0.576946   0.129513   x
            x  O            3         0.890020   0.077004   0.370502   x
            x  O            4         0.390018   0.577003   0.370500   x
            x  O            5         0.890090   0.923052   0.870489   x
            x  O            6         0.390088   0.423054   0.870487   x
            x  O            7         0.109980   0.922996   0.629498   x
            x  O            8         0.609982   0.422997   0.629500   x
            x  O            9         0.361016   0.263537   0.295188   x
            x  O           10         0.861015   0.763538   0.295187   x
            x  O           11         0.638845   0.263770   0.204584   x
            x  O           12         0.138846   0.763771   0.204585   x
            x  O           13         0.638984   0.736463   0.704812   x
            x  O           14         0.138985   0.236462   0.704813   x
            x  O           15         0.361155   0.736230   0.795416   x
            x  O           16         0.861154   0.236229   0.795415   x
            x  O           17         0.353644   0.008454   1.004838   x
            x  O           18         0.853647   0.508451   1.004848   x
            x  O           19         0.645973   0.008465   0.494973   x
            x  O           20         0.145970   0.508461   0.494963   x
            x  O           21         0.646356   0.991546  -0.004838   x
            x  O           22         0.146353   0.491549  -0.004848   x
            x  O           23         0.354027   0.991535   0.505027   x
            x  O           24         0.854030   0.491539   0.505037   x
            x  Na           1         0.000047   0.301251   0.249936   x
            x  Na           2         0.500047   0.801255   0.249936   x
            x  Na           3        -0.000047   0.698749   0.750064   x
            x  Na           4         0.499953   0.198745   0.750064   x
            x  Al           1         0.000080   0.906231   0.250080   x
            x  Al           2         0.500080   0.406231   0.250080   x
            x  Al           3        -0.000080   0.093769   0.749920   x
            x  Al           4         0.499920   0.593769   0.749920   x
            x  Si           1         0.290298   0.093923   0.226842   x
            x  Si           2         0.790300   0.593922   0.226848   x
            x  Si           3         0.709811   0.093845   0.271332   x
            x  Si           4         0.209810   0.593844   0.271326   x
            x  Si           5         0.709702   0.906077   0.773158   x
            x  Si           6         0.209700   0.406078   0.773152   x
            x  Si           7         0.290189   0.906155   0.728668   x
            x  Si           8         0.790190   0.406156   0.728674   x
            xxxxxxxxxxxxxxxxxxxxxxxxxxxxxxxxxxxxxxxxxxxxxxxxxxxxxxxxxxxx
 
 
------------------------------------------------------------------------ <-- SCF
SCF loop      Energy                           Energy gain       Timer   <-- SCF
                                               per atom          (sec)   <-- SCF
------------------------------------------------------------------------ <-- SCF
Initial  -1.68459808E+004                                        283.23  <-- SCF
      1  -1.68461618E+004                    4.52498742E-003     301.14  <-- SCF
      2  -1.68461618E+004                    1.86438944E-006     319.51  <-- SCF
      3  -1.68461618E+004                    2.16056140E-008     337.75  <-- SCF
      4  -1.68461618E+004                    4.28537652E-010     356.87  <-- SCF
      5  -1.68461618E+004                    9.59008643E-012     376.10  <-- SCF
------------------------------------------------------------------------ <-- SCF
 
Final energy =  -16846.16183217     eV
(energy not corrected for finite basis set)
 
 
 *********************************** Forces ***********************************
 *                                                                            *
 *                        Cartesian components (eV/A)                         *
 * -------------------------------------------------------------------------- *
 *                   x                    y                    z              *
 *                                                                            *
 * O         1     -0.02363             -0.03549             -0.02839         *
 * O         2     -0.02379             -0.03544             -0.02842         *
 * O         3      0.03272             -0.02163              0.00268         *
 * O         4      0.03288             -0.02159              0.00270         *
 * O         5      0.02363              0.03549              0.02839         *
 * O         6      0.02379              0.03544              0.02842         *
 * O         7     -0.03272              0.02163             -0.00268         *
 * O         8     -0.03288              0.02159             -0.00270         *
 * O         9      0.00409             -0.02302             -0.07775         *
 * O        10      0.00412             -0.02308             -0.07774         *
 * O        11     -0.02741             -0.02462             -0.02347         *
 * O        12     -0.02744             -0.02468             -0.02349         *
 * O        13     -0.00409              0.02302              0.07775         *
 * O        14     -0.00412              0.02308              0.07774         *
 * O        15      0.02741              0.02462              0.02347         *
 * O        16      0.02744              0.02468              0.02349         *
 * O        17     -0.15441             -0.01643             -0.02267         *
 * O        18     -0.15452             -0.01637             -0.02272         *
 * O        19      0.10929              0.00026             -0.02113         *
 * O        20      0.10940              0.00031             -0.02108         *
 * O        21      0.15441              0.01643              0.02267         *
 * O        22      0.15452              0.01637              0.02272         *
 * O        23     -0.10929             -0.00026              0.02113         *
 * O        24     -0.10940             -0.00031              0.02108         *
 * Na        1      0.03258              0.04269             -0.00957         *
 * Na        2      0.03257              0.04259             -0.00957         *
 * Na        3     -0.03258             -0.04269              0.00957         *
 * Na        4     -0.03257             -0.04259              0.00957         *
 * Al        1      0.04267             -0.08258              0.00189         *
 * Al        2      0.04266             -0.08255              0.00190         *
 * Al        3     -0.04267              0.08258             -0.00189         *
 * Al        4     -0.04266              0.08255             -0.00190         *
 * Si        1      0.04275             -0.02578             -0.02071         *
 * Si        2      0.04272             -0.02567             -0.02070         *
 * Si        3     -0.06935              0.02005             -0.00518         *
 * Si        4     -0.06931              0.02015             -0.00517         *
 * Si        5     -0.04275              0.02578              0.02071         *
 * Si        6     -0.04272              0.02567              0.02070         *
 * Si        7      0.06935             -0.02005              0.00518         *
 * Si        8      0.06931             -0.02015              0.00517         *
 *                                                                            *
 ******************************************************************************
  
 +------------+-------------+-------------+-----------------+ <-- min BFGS
 |    Step    |   lambda    |   F.delta   |    enthalpy     | <-- min BFGS
 +------------+-------------+-------------+-----------------+ <-- min BFGS
 |  previous  |    0.000000 |    0.000465 |   -16835.247814 | <-- min BFGS
 | trial step |    1.000000 |    0.000338 |   -16835.258744 | <-- min BFGS
 |  line step |    3.679335 |   -0.000005 |   -16835.270948 | <-- min BFGS
 +------------+-------------+-------------+-----------------+ <-- min BFGS
  
 BFGS: finished iteration     1 with enthalpy= -1.68352709E+004 eV
  
 +-----------+-----------------+-----------------+------------+-----+ <-- BFGS
 | Parameter |      value      |    tolerance    |    units   | OK? | <-- BFGS
 +-----------+-----------------+-----------------+------------+-----+ <-- BFGS
 |  dE/ion   |   5.783488E-004 |   2.000000E-007 |         eV | No  | <-- BFGS
 |  |F|max   |   1.570374E-001 |   1.000000E-003 |       eV/A | No  | <-- BFGS
 |  |dR|max  |   7.881413E-003 |   1.000000E-003 |          A | No  | <-- BFGS
 +-----------+-----------------+-----------------+------------+-----+ <-- BFGS
  

================================================================================
 Starting BFGS iteration          2 ...
================================================================================
 
Writing model to jadeite_4_30_GPa_cij__1__5.check
  
 +------------+-------------+-------------+-----------------+ <-- min BFGS
 |    Step    |   lambda    |   F.delta   |    enthalpy     | <-- min BFGS
 +------------+-------------+-------------+-----------------+ <-- min BFGS
 |  previous  |    0.000000 |    0.000049 |   -16835.270948 | <-- min BFGS
 +------------+-------------+-------------+-----------------+ <-- min BFGS
  

--------------------------------------------------------------------------------
 BFGS: starting iteration         2 with trial guess (lambda=  1.000000)
--------------------------------------------------------------------------------
 
                           -------------------------------
                                     Cell Contents
                           -------------------------------
 
            xxxxxxxxxxxxxxxxxxxxxxxxxxxxxxxxxxxxxxxxxxxxxxxxxxxxxxxxxxxx
            x  Element    Atom        Fractional coordinates of atoms  x
            x            Number           u          v          w      x
            x----------------------------------------------------------x
            x  O            1         0.109911   0.076928   0.129485   x
            x  O            2         0.609912   0.576927   0.129487   x
            x  O            3         0.890022   0.076993   0.370508   x
            x  O            4         0.390021   0.576992   0.370506   x
            x  O            5         0.890089   0.923072   0.870515   x
            x  O            6         0.390088   0.423073   0.870513   x
            x  O            7         0.109978   0.923007   0.629492   x
            x  O            8         0.609979   0.423008   0.629494   x
            x  O            9         0.361017   0.263520   0.295114   x
            x  O           10         0.861017   0.763520   0.295113   x
            x  O           11         0.638828   0.263757   0.204555   x
            x  O           12         0.138829   0.763757   0.204556   x
            x  O           13         0.638983   0.736480   0.704886   x
            x  O           14         0.138983   0.236480   0.704887   x
            x  O           15         0.361172   0.736243   0.795445   x
            x  O           16         0.861171   0.236243   0.795444   x
            x  O           17         0.353555   0.008444   1.004769   x
            x  O           18         0.853558   0.508441   1.004779   x
            x  O           19         0.646031   0.008465   0.494985   x
            x  O           20         0.146028   0.508461   0.494975   x
            x  O           21         0.646445   0.991556  -0.004769   x
            x  O           22         0.146442   0.491559  -0.004779   x
            x  O           23         0.353969   0.991535   0.505015   x
            x  O           24         0.853972   0.491539   0.505025   x
            x  Na           1         0.000065   0.301275   0.249935   x
            x  Na           2         0.500065   0.801279   0.249935   x
            x  Na           3        -0.000065   0.698725   0.750065   x
            x  Na           4         0.499935   0.198721   0.750065   x
            x  Al           1         0.000104   0.906184   0.250097   x
            x  Al           2         0.500104   0.406184   0.250097   x
            x  Al           3        -0.000104   0.093816   0.749903   x
            x  Al           4         0.499896   0.593816   0.749903   x
            x  Si           1         0.290309   0.093911   0.226810   x
            x  Si           2         0.790310   0.593910   0.226816   x
            x  Si           3         0.709789   0.093857   0.271295   x
            x  Si           4         0.209787   0.593856   0.271290   x
            x  Si           5         0.709691   0.906089   0.773190   x
            x  Si           6         0.209690   0.406090   0.773184   x
            x  Si           7         0.290211   0.906143   0.728705   x
            x  Si           8         0.790213   0.406144   0.728710   x
            xxxxxxxxxxxxxxxxxxxxxxxxxxxxxxxxxxxxxxxxxxxxxxxxxxxxxxxxxxxx
 
 
------------------------------------------------------------------------ <-- SCF
SCF loop      Energy                           Energy gain       Timer   <-- SCF
                                               per atom          (sec)   <-- SCF
------------------------------------------------------------------------ <-- SCF
Initial  -1.68461594E+004                                        385.28  <-- SCF
      1  -1.68461631E+004                    9.08954964E-005     403.87  <-- SCF
      2  -1.68461631E+004                    3.50776746E-008     422.09  <-- SCF
      3  -1.68461631E+004                    2.64964807E-010     440.85  <-- SCF
      4  -1.68461631E+004                    6.03247372E-012     462.23  <-- SCF
------------------------------------------------------------------------ <-- SCF
 
Final energy =  -16846.16308509     eV
(energy not corrected for finite basis set)
 
 
 *********************************** Forces ***********************************
 *                                                                            *
 *                        Cartesian components (eV/A)                         *
 * -------------------------------------------------------------------------- *
 *                   x                    y                    z              *
 *                                                                            *
 * O         1     -0.02128             -0.03320             -0.02690         *
 * O         2     -0.02141             -0.03315             -0.02692         *
 * O         3      0.02793             -0.01734              0.00359         *
 * O         4      0.02806             -0.01729              0.00361         *
 * O         5      0.02128              0.03320              0.02690         *
 * O         6      0.02141              0.03315              0.02692         *
 * O         7     -0.02793              0.01734             -0.00359         *
 * O         8     -0.02806              0.01729             -0.00361         *
 * O         9      0.00585             -0.02441             -0.07528         *
 * O        10      0.00589             -0.02446             -0.07526         *
 * O        11     -0.02833             -0.02262             -0.02443         *
 * O        12     -0.02837             -0.02267             -0.02445         *
 * O        13     -0.00585              0.02441              0.07528         *
 * O        14     -0.00589              0.02446              0.07526         *
 * O        15      0.02833              0.02262              0.02443         *
 * O        16      0.02837              0.02267              0.02445         *
 * O        17     -0.13830             -0.01600             -0.02082         *
 * O        18     -0.13841             -0.01595             -0.02087         *
 * O        19      0.10017             -0.00104             -0.01645         *
 * O        20      0.10028             -0.00099             -0.01640         *
 * O        21      0.13830              0.01600              0.02082         *
 * O        22      0.13841              0.01595              0.02087         *
 * O        23     -0.10017              0.00104              0.01645         *
 * O        24     -0.10028              0.00099              0.01640         *
 * Na        1      0.03297              0.04000             -0.00894         *
 * Na        2      0.03296              0.03990             -0.00894         *
 * Na        3     -0.03297             -0.04000              0.00894         *
 * Na        4     -0.03296             -0.03990              0.00894         *
 * Al        1      0.03995             -0.07360              0.00181         *
 * Al        2      0.03995             -0.07357              0.00182         *
 * Al        3     -0.03995              0.07360             -0.00181         *
 * Al        4     -0.03995              0.07357             -0.00182         *
 * Si        1      0.02838             -0.02235             -0.01312         *
 * Si        2      0.02833             -0.02226             -0.01311         *
 * Si        3     -0.04814              0.01919              0.00108         *
 * Si        4     -0.04808              0.01927              0.00109         *
 * Si        5     -0.02838              0.02235              0.01312         *
 * Si        6     -0.02833              0.02226              0.01311         *
 * Si        7      0.04814             -0.01919             -0.00108         *
 * Si        8      0.04808             -0.01927             -0.00109         *
 *                                                                            *
 ******************************************************************************
  
 +------------+-------------+-------------+-----------------+ <-- min BFGS
 |    Step    |   lambda    |   F.delta   |    enthalpy     | <-- min BFGS
 +------------+-------------+-------------+-----------------+ <-- min BFGS
 |  previous  |    0.000000 |    0.000049 |   -16835.270948 | <-- min BFGS
 | trial step |    1.000000 |    0.000044 |   -16835.272201 | <-- min BFGS
 +------------+-------------+-------------+-----------------+ <-- min BFGS
  

--------------------------------------------------------------------------------
 BFGS: improving iteration         2 with line minimization (lambda=  9.822734)
--------------------------------------------------------------------------------
 
                           -------------------------------
                                     Cell Contents
                           -------------------------------
 
            xxxxxxxxxxxxxxxxxxxxxxxxxxxxxxxxxxxxxxxxxxxxxxxxxxxxxxxxxxxx
            x  Element    Atom        Fractional coordinates of atoms  x
            x            Number           u          v          w      x
            x----------------------------------------------------------x
            x  O            1         0.109916   0.076752   0.129254   x
            x  O            2         0.609917   0.576751   0.129256   x
            x  O            3         0.890047   0.076896   0.370561   x
            x  O            4         0.390046   0.576895   0.370559   x
            x  O            5         0.890084   0.923248   0.870746   x
            x  O            6         0.390083   0.423249   0.870744   x
            x  O            7         0.109953   0.923104   0.629439   x
            x  O            8         0.609954   0.423105   0.629441   x
            x  O            9         0.361031   0.263368   0.294462   x
            x  O           10         0.861030   0.763368   0.294461   x
            x  O           11         0.638681   0.263640   0.204292   x
            x  O           12         0.138682   0.763640   0.204293   x
            x  O           13         0.638969   0.736632   0.705538   x
            x  O           14         0.138970   0.236632   0.705539   x
            x  O           15         0.361319   0.736360   0.795708   x
            x  O           16         0.861318   0.236360   0.795707   x
            x  O           17         0.352767   0.008361   1.004158   x
            x  O           18         0.852769   0.508358   1.004167   x
            x  O           19         0.646539   0.008465   0.495095   x
            x  O           20         0.146537   0.508462   0.495086   x
            x  O           21         0.647233   0.991639  -0.004158   x
            x  O           22         0.147231   0.491642  -0.004167   x
            x  O           23         0.353461   0.991535   0.504905   x
            x  O           24         0.853463   0.491538   0.504914   x
            x  Na           1         0.000225   0.301489   0.249924   x
            x  Na           2         0.500225   0.801493   0.249924   x
            x  Na           3        -0.000225   0.698511   0.750076   x
            x  Na           4         0.499775   0.198507   0.750076   x
            x  Al           1         0.000317   0.905768   0.250242   x
            x  Al           2         0.500317   0.405769   0.250242   x
            x  Al           3        -0.000317   0.094232   0.749758   x
            x  Al           4         0.499683   0.594231   0.749758   x
            x  Si           1         0.290403   0.093801   0.226523   x
            x  Si           2         0.790405   0.593801   0.226529   x
            x  Si           3         0.709590   0.093959   0.270973   x
            x  Si           4         0.209589   0.593959   0.270968   x
            x  Si           5         0.709597   0.906199   0.773477   x
            x  Si           6         0.209595   0.406199   0.773471   x
            x  Si           7         0.290410   0.906041   0.729027   x
            x  Si           8         0.790411   0.406041   0.729032   x
            xxxxxxxxxxxxxxxxxxxxxxxxxxxxxxxxxxxxxxxxxxxxxxxxxxxxxxxxxxxx
 
 
------------------------------------------------------------------------ <-- SCF
SCF loop      Energy                           Energy gain       Timer   <-- SCF
                                               per atom          (sec)   <-- SCF
------------------------------------------------------------------------ <-- SCF
Initial  -1.68459637E+004                                        470.42  <-- SCF
      1  -1.68461682E+004                    5.11281707E-003     488.59  <-- SCF
      2  -1.68461683E+004                    1.86299610E-006     506.35  <-- SCF
      3  -1.68461683E+004                    1.33408930E-008     524.15  <-- SCF
      4  -1.68461683E+004                    2.79117919E-010     541.93  <-- SCF
      5  -1.68461683E+004                    7.57926185E-012     561.11  <-- SCF
------------------------------------------------------------------------ <-- SCF
 
Final energy =  -16846.16831278     eV
(energy not corrected for finite basis set)
 
 
 *********************************** Forces ***********************************
 *                                                                            *
 *                        Cartesian components (eV/A)                         *
 * -------------------------------------------------------------------------- *
 *                   x                    y                    z              *
 *                                                                            *
 * O         1     -0.00073             -0.01297             -0.01376         *
 * O         2     -0.00064             -0.01288             -0.01375         *
 * O         3     -0.01385              0.02072              0.01166         *
 * O         4     -0.01392              0.02080              0.01166         *
 * O         5      0.00073              0.01297              0.01376         *
 * O         6      0.00064              0.01288              0.01375         *
 * O         7      0.01385             -0.02072             -0.01166         *
 * O         8      0.01392             -0.02080             -0.01166         *
 * O         9      0.02131             -0.03669             -0.05346         *
 * O        10      0.02142             -0.03657             -0.05343         *
 * O        11     -0.03636             -0.00491             -0.03307         *
 * O        12     -0.03646             -0.00480             -0.03310         *
 * O        13     -0.02131              0.03669              0.05346         *
 * O        14     -0.02142              0.03657              0.05343         *
 * O        15      0.03636              0.00491              0.03307         *
 * O        16      0.03646              0.00480              0.03310         *
 * O        17      0.00364             -0.01174             -0.00408         *
 * O        18      0.00354             -0.01170             -0.00411         *
 * O        19      0.02005             -0.01261              0.02501         *
 * O        20      0.02015             -0.01257              0.02505         *
 * O        21     -0.00364              0.01174              0.00408         *
 * O        22     -0.00354              0.01170              0.00411         *
 * O        23     -0.02005              0.01261             -0.02501         *
 * O        24     -0.02015              0.01257             -0.02505         *
 * Na        1      0.03642              0.01621             -0.00342         *
 * Na        2      0.03642              0.01611             -0.00342         *
 * Na        3     -0.03642             -0.01621              0.00342         *
 * Na        4     -0.03642             -0.01611              0.00342         *
 * Al        1      0.01581              0.00598              0.00119         *
 * Al        2      0.01581              0.00599              0.00119         *
 * Al        3     -0.01581             -0.00598             -0.00119         *
 * Al        4     -0.01581             -0.00599             -0.00119         *
 * Si        1     -0.09831              0.00810              0.05464         *
 * Si        2     -0.09853              0.00793              0.05457         *
 * Si        3      0.13889              0.01214              0.05752         *
 * Si        4      0.13911              0.01198              0.05756         *
 * Si        5      0.09831             -0.00810             -0.05464         *
 * Si        6      0.09853             -0.00793             -0.05457         *
 * Si        7     -0.13889             -0.01214             -0.05752         *
 * Si        8     -0.13911             -0.01198             -0.05756         *
 *                                                                            *
 ******************************************************************************
  
 +------------+-------------+-------------+-----------------+ <-- min BFGS
 |    Step    |   lambda    |   F.delta   |    enthalpy     | <-- min BFGS
 +------------+-------------+-------------+-----------------+ <-- min BFGS
 |  previous  |    0.000000 |    0.000049 |   -16835.270948 | <-- min BFGS
 | trial step |    1.000000 |    0.000044 |   -16835.272201 | <-- min BFGS
 |  line step |    9.822734 |    0.000000 |   -16835.277428 | <-- min BFGS
 +------------+-------------+-------------+-----------------+ <-- min BFGS
  
 BFGS: finished iteration     2 with enthalpy= -1.68352774E+004 eV
  
 +-----------+-----------------+-----------------+------------+-----+ <-- BFGS
 | Parameter |      value      |    tolerance    |    units   | OK? | <-- BFGS
 +-----------+-----------------+-----------------+------------+-----+ <-- BFGS
 |  dE/ion   |   1.620154E-004 |   2.000000E-007 |         eV | No  | <-- BFGS
 |  |F|max   |   1.510208E-001 |   1.000000E-003 |       eV/A | No  | <-- BFGS
 |  |dR|max  |   8.084590E-003 |   1.000000E-003 |          A | No  | <-- BFGS
 +-----------+-----------------+-----------------+------------+-----+ <-- BFGS
  

================================================================================
 Starting BFGS iteration          3 ...
================================================================================
 
Writing model to jadeite_4_30_GPa_cij__1__5.check
  
 +------------+-------------+-------------+-----------------+ <-- min BFGS
 |    Step    |   lambda    |   F.delta   |    enthalpy     | <-- min BFGS
 +------------+-------------+-------------+-----------------+ <-- min BFGS
 |  previous  |    0.000000 |    0.000044 |   -16835.277428 | <-- min BFGS
 +------------+-------------+-------------+-----------------+ <-- min BFGS
  

--------------------------------------------------------------------------------
 BFGS: starting iteration         3 with trial guess (lambda=  1.000000)
--------------------------------------------------------------------------------
 
                           -------------------------------
                                     Cell Contents
                           -------------------------------
 
            xxxxxxxxxxxxxxxxxxxxxxxxxxxxxxxxxxxxxxxxxxxxxxxxxxxxxxxxxxxx
            x  Element    Atom        Fractional coordinates of atoms  x
            x            Number           u          v          w      x
            x----------------------------------------------------------x
            x  O            1         0.109958   0.076724   0.129236   x
            x  O            2         0.609959   0.576723   0.129238   x
            x  O            3         0.889995   0.076900   0.370554   x
            x  O            4         0.389994   0.576899   0.370552   x
            x  O            5         0.890042   0.923276   0.870764   x
            x  O            6         0.390041   0.423277   0.870762   x
            x  O            7         0.110005   0.923100   0.629446   x
            x  O            8         0.610006   0.423101   0.629448   x
            x  O            9         0.361042   0.263316   0.294332   x
            x  O           10         0.861041   0.763317   0.294332   x
            x  O           11         0.638638   0.263625   0.204219   x
            x  O           12         0.138638   0.763626   0.204220   x
            x  O           13         0.638958   0.736684   0.705668   x
            x  O           14         0.138959   0.236683   0.705668   x
            x  O           15         0.361362   0.736375   0.795781   x
            x  O           16         0.861362   0.236374   0.795780   x
            x  O           17         0.352654   0.008343   1.004072   x
            x  O           18         0.852657   0.508341   1.004081   x
            x  O           19         0.646608   0.008458   0.495139   x
            x  O           20         0.146605   0.508455   0.495130   x
            x  O           21         0.647346   0.991657  -0.004072   x
            x  O           22         0.147343   0.491659  -0.004081   x
            x  O           23         0.353392   0.991542   0.504861   x
            x  O           24         0.853395   0.491545   0.504870   x
            x  Na           1         0.000266   0.301524   0.249926   x
            x  Na           2         0.500266   0.801528   0.249926   x
            x  Na           3        -0.000266   0.698476   0.750074   x
            x  Na           4         0.499734   0.198472   0.750074   x
            x  Al           1         0.000355   0.905722   0.250269   x
            x  Al           2         0.500355   0.405722   0.250269   x
            x  Al           3        -0.000355   0.094278   0.749731   x
            x  Al           4         0.499645   0.594278   0.749731   x
            x  Si           1         0.290324   0.093800   0.226429   x
            x  Si           2         0.790325   0.593800   0.226435   x
            x  Si           3         0.709687   0.093979   0.270992   x
            x  Si           4         0.209686   0.593979   0.270987   x
            x  Si           5         0.709676   0.906200   0.773571   x
            x  Si           6         0.209675   0.406200   0.773565   x
            x  Si           7         0.290313   0.906021   0.729008   x
            x  Si           8         0.790314   0.406021   0.729013   x
            xxxxxxxxxxxxxxxxxxxxxxxxxxxxxxxxxxxxxxxxxxxxxxxxxxxxxxxxxxxx
 
 
------------------------------------------------------------------------ <-- SCF
SCF loop      Energy                           Energy gain       Timer   <-- SCF
                                               per atom          (sec)   <-- SCF
------------------------------------------------------------------------ <-- SCF
Initial  -1.68461600E+004                                        570.19  <-- SCF
      1  -1.68461693E+004                    2.31957939E-004     588.13  <-- SCF
      2  -1.68461693E+004                    9.97520573E-008     606.03  <-- SCF
      3  -1.68461693E+004                    7.68212326E-010     625.13  <-- SCF
      4  -1.68461693E+004                    1.63186148E-011     646.47  <-- SCF
------------------------------------------------------------------------ <-- SCF
 
Final energy =  -16846.16929220     eV
(energy not corrected for finite basis set)
 
 
 *********************************** Forces ***********************************
 *                                                                            *
 *                        Cartesian components (eV/A)                         *
 * -------------------------------------------------------------------------- *
 *                   x                    y                    z              *
 *                                                                            *
 * O         1     -0.03360             -0.01356             -0.01055         *
 * O         2     -0.03354             -0.01349             -0.01055         *
 * O         3      0.02637              0.01955              0.01208         *
 * O         4      0.02632              0.01962              0.01208         *
 * O         5      0.03360              0.01356              0.01055         *
 * O         6      0.03354              0.01349              0.01055         *
 * O         7     -0.02637             -0.01955             -0.01208         *
 * O         8     -0.02632             -0.01962             -0.01208         *
 * O         9      0.02341             -0.02806             -0.04919         *
 * O        10      0.02347             -0.02800             -0.04916         *
 * O        11     -0.02893             -0.00997             -0.03229         *
 * O        12     -0.02899             -0.00992             -0.03231         *
 * O        13     -0.02341              0.02806              0.04919         *
 * O        14     -0.02347              0.02800              0.04916         *
 * O        15      0.02893              0.00997              0.03229         *
 * O        16      0.02899              0.00992              0.03231         *
 * O        17      0.01203             -0.01209             -0.00325         *
 * O        18      0.01192             -0.01205             -0.00329         *
 * O        19      0.02141             -0.00998              0.02148         *
 * O        20      0.02152             -0.00994              0.02151         *
 * O        21     -0.01203              0.01209              0.00325         *
 * O        22     -0.01192              0.01205              0.00329         *
 * O        23     -0.02141              0.00998             -0.02148         *
 * O        24     -0.02152              0.00994             -0.02151         *
 * Na        1      0.03645              0.01844             -0.00311         *
 * Na        2      0.03645              0.01835             -0.00311         *
 * Na        3     -0.03645             -0.01844              0.00311         *
 * Na        4     -0.03645             -0.01835              0.00311         *
 * Al        1      0.01166              0.00536             -0.00173         *
 * Al        2      0.01165              0.00535             -0.00173         *
 * Al        3     -0.01166             -0.00536              0.00173         *
 * Al        4     -0.01165             -0.00535              0.00173         *
 * Si        1     -0.07015              0.00209              0.06077         *
 * Si        2     -0.07030              0.00198              0.06071         *
 * Si        3      0.09788              0.01296              0.06898         *
 * Si        4      0.09802              0.01285              0.06901         *
 * Si        5      0.07015             -0.00209             -0.06077         *
 * Si        6      0.07030             -0.00198             -0.06071         *
 * Si        7     -0.09788             -0.01296             -0.06898         *
 * Si        8     -0.09802             -0.01285             -0.06901         *
 *                                                                            *
 ******************************************************************************
  
 +------------+-------------+-------------+-----------------+ <-- min BFGS
 |    Step    |   lambda    |   F.delta   |    enthalpy     | <-- min BFGS
 +------------+-------------+-------------+-----------------+ <-- min BFGS
 |  previous  |    0.000000 |    0.000044 |   -16835.277428 | <-- min BFGS
 | trial step |    1.000000 |    0.000028 |   -16835.278408 | <-- min BFGS
 +------------+-------------+-------------+-----------------+ <-- min BFGS
  

--------------------------------------------------------------------------------
 BFGS: improving iteration         3 with line minimization (lambda=  2.726591)
--------------------------------------------------------------------------------
 
                           -------------------------------
                                     Cell Contents
                           -------------------------------
 
            xxxxxxxxxxxxxxxxxxxxxxxxxxxxxxxxxxxxxxxxxxxxxxxxxxxxxxxxxxxx
            x  Element    Atom        Fractional coordinates of atoms  x
            x            Number           u          v          w      x
            x----------------------------------------------------------x
            x  O            1         0.110032   0.076677   0.129204   x
            x  O            2         0.610032   0.576676   0.129206   x
            x  O            3         0.889906   0.076907   0.370542   x
            x  O            4         0.389905   0.576906   0.370540   x
            x  O            5         0.889968   0.923323   0.870796   x
            x  O            6         0.389968   0.423324   0.870794   x
            x  O            7         0.110094   0.923093   0.629458   x
            x  O            8         0.610095   0.423094   0.629460   x
            x  O            9         0.361060   0.263227   0.294109   x
            x  O           10         0.861060   0.763227   0.294108   x
            x  O           11         0.638563   0.263600   0.204094   x
            x  O           12         0.138564   0.763601   0.204094   x
            x  O           13         0.638940   0.736773   0.705891   x
            x  O           14         0.138940   0.236773   0.705892   x
            x  O           15         0.361437   0.736400   0.795906   x
            x  O           16         0.861436   0.236399   0.795906   x
            x  O           17         0.352460   0.008314   1.003923   x
            x  O           18         0.852462   0.508311   1.003932   x
            x  O           19         0.646725   0.008445   0.495214   x
            x  O           20         0.146723   0.508442   0.495206   x
            x  O           21         0.647540   0.991686  -0.003923   x
            x  O           22         0.147538   0.491689  -0.003932   x
            x  O           23         0.353275   0.991555   0.504786   x
            x  O           24         0.853277   0.491558   0.504794   x
            x  Na           1         0.000336   0.301584   0.249929   x
            x  Na           2         0.500336   0.801588   0.249929   x
            x  Na           3        -0.000336   0.698416   0.750071   x
            x  Na           4         0.499664   0.198412   0.750071   x
            x  Al           1         0.000420   0.905641   0.250317   x
            x  Al           2         0.500420   0.405642   0.250317   x
            x  Al           3        -0.000420   0.094359   0.749683   x
            x  Al           4         0.499580   0.594358   0.749683   x
            x  Si           1         0.290186   0.093798   0.226267   x
            x  Si           2         0.790187   0.593798   0.226272   x
            x  Si           3         0.709854   0.094013   0.271025   x
            x  Si           4         0.209853   0.594013   0.271020   x
            x  Si           5         0.709814   0.906202   0.773733   x
            x  Si           6         0.209813   0.406202   0.773728   x
            x  Si           7         0.290146   0.905987   0.728975   x
            x  Si           8         0.790147   0.405987   0.728980   x
            xxxxxxxxxxxxxxxxxxxxxxxxxxxxxxxxxxxxxxxxxxxxxxxxxxxxxxxxxxxx
 
 
------------------------------------------------------------------------ <-- SCF
SCF loop      Energy                           Energy gain       Timer   <-- SCF
                                               per atom          (sec)   <-- SCF
------------------------------------------------------------------------ <-- SCF
Initial  -1.68461543E+004                                        654.54  <-- SCF
      1  -1.68461699E+004                    3.90680408E-004     672.96  <-- SCF
      2  -1.68461699E+004                    1.63059930E-007     691.35  <-- SCF
      3  -1.68461699E+004                    1.37617740E-009     709.48  <-- SCF
      4  -1.68461699E+004                    2.83062228E-011     728.54  <-- SCF
------------------------------------------------------------------------ <-- SCF
 
Final energy =  -16846.16994510     eV
(energy not corrected for finite basis set)
 
 
 *********************************** Forces ***********************************
 *                                                                            *
 *                        Cartesian components (eV/A)                         *
 * -------------------------------------------------------------------------- *
 *                   x                    y                    z              *
 *                                                                            *
 * O         1     -0.09078             -0.01464             -0.00503         *
 * O         2     -0.09077             -0.01459             -0.00502         *
 * O         3      0.09640              0.01750              0.01287         *
 * O         4      0.09640              0.01755              0.01287         *
 * O         5      0.09078              0.01464              0.00503         *
 * O         6      0.09077              0.01459              0.00502         *
 * O         7     -0.09640             -0.01750             -0.01287         *
 * O         8     -0.09640             -0.01755             -0.01287         *
 * O         9      0.02704             -0.01319             -0.04181         *
 * O        10      0.02704             -0.01324             -0.04178         *
 * O        11     -0.01608             -0.01874             -0.03095         *
 * O        12     -0.01606             -0.01879             -0.03098         *
 * O        13     -0.02704              0.01319              0.04181         *
 * O        14     -0.02704              0.01324              0.04178         *
 * O        15      0.01608              0.01874              0.03095         *
 * O        16      0.01606              0.01879              0.03098         *
 * O        17      0.02653             -0.01268             -0.00181         *
 * O        18      0.02641             -0.01266             -0.00186         *
 * O        19      0.02373             -0.00545              0.01540         *
 * O        20      0.02386             -0.00542              0.01545         *
 * O        21     -0.02653              0.01268              0.00181         *
 * O        22     -0.02641              0.01266              0.00186         *
 * O        23     -0.02373              0.00545             -0.01540         *
 * O        24     -0.02386              0.00542             -0.01545         *
 * Na        1      0.03653              0.02230             -0.00258         *
 * Na        2      0.03653              0.02223             -0.00258         *
 * Na        3     -0.03653             -0.02230              0.00258         *
 * Na        4     -0.03653             -0.02223              0.00258         *
 * Al        1      0.00447              0.00427             -0.00678         *
 * Al        2      0.00447              0.00423             -0.00678         *
 * Al        3     -0.00447             -0.00427              0.00678         *
 * Al        4     -0.00447             -0.00423              0.00678         *
 * Si        1     -0.02125             -0.00822              0.07130         *
 * Si        2     -0.02127             -0.00822              0.07127         *
 * Si        3      0.02654              0.01445              0.08872         *
 * Si        4      0.02656              0.01444              0.08875         *
 * Si        5      0.02125              0.00822             -0.07130         *
 * Si        6      0.02127              0.00822             -0.07127         *
 * Si        7     -0.02654             -0.01445             -0.08872         *
 * Si        8     -0.02656             -0.01444             -0.08875         *
 *                                                                            *
 ******************************************************************************
  
 +------------+-------------+-------------+-----------------+ <-- min BFGS
 |    Step    |   lambda    |   F.delta   |    enthalpy     | <-- min BFGS
 +------------+-------------+-------------+-----------------+ <-- min BFGS
 |  previous  |    0.000000 |    0.000044 |   -16835.277428 | <-- min BFGS
 | trial step |    1.000000 |    0.000028 |   -16835.278408 | <-- min BFGS
 |  line step |    2.726591 |    0.000000 |   -16835.279061 | <-- min BFGS
 +------------+-------------+-------------+-----------------+ <-- min BFGS
  
 BFGS: finished iteration     3 with enthalpy= -1.68352791E+004 eV
  
 +-----------+-----------------+-----------------+------------+-----+ <-- BFGS
 | Parameter |      value      |    tolerance    |    units   | OK? | <-- BFGS
 +-----------+-----------------+-----------------+------------+-----+ <-- BFGS
 |  dE/ion   |   4.080799E-005 |   2.000000E-007 |         eV | No  | <-- BFGS
 |  |F|max   |   9.882134E-002 |   1.000000E-003 |       eV/A | No  | <-- BFGS
 |  |dR|max  |   2.843870E-003 |   1.000000E-003 |          A | No  | <-- BFGS
[...]
            x  O           20         0.147737   0.508872   0.496577   x
            x  O           21         0.648268   0.992248  -0.002507   x
            x  O           22         0.148268   0.492248  -0.002508   x
            x  O           23         0.352263   0.991128   0.503422   x
            x  O           24         0.852263   0.491128   0.503423   x
            x  Na           1         0.002519   0.302906   0.249320   x
            x  Na           2         0.502519   0.802906   0.249320   x
            x  Na           3        -0.002519   0.697094   0.750680   x
            x  Na           4         0.497481   0.197094   0.750680   x
            x  Al           1         0.000455   0.905424   0.250174   x
            x  Al           2         0.500455   0.405424   0.250174   x
            x  Al           3        -0.000455   0.094576   0.749826   x
            x  Al           4         0.499545   0.594576   0.749826   x
            x  Si           1         0.289511   0.093343   0.225037   x
            x  Si           2         0.789511   0.593343   0.225037   x
            x  Si           3         0.710911   0.094720   0.272684   x
            x  Si           4         0.210911   0.594720   0.272683   x
            x  Si           5         0.710489   0.906657   0.774963   x
            x  Si           6         0.210489   0.406657   0.774963   x
            x  Si           7         0.289089   0.905280   0.727316   x
            x  Si           8         0.789089   0.405280   0.727317   x
            xxxxxxxxxxxxxxxxxxxxxxxxxxxxxxxxxxxxxxxxxxxxxxxxxxxxxxxxxxxx
 
 
 BFGS: Final Enthalpy     = -1.68352870E+004 eV
 BFGS: Final <frequency>  =     971.96608 cm-1
 
 ***************************** Symmetrised Forces *****************************
 *                                                                            *
 *                        Cartesian components (eV/A)                         *
 * -------------------------------------------------------------------------- *
 *                   x                    y                    z              *
 *                                                                            *
 * O         1      0.00023              0.00036              0.00020         *
 * O         2      0.00023              0.00036              0.00020         *
 * O         3      0.00030             -0.00063              0.00018         *
 * O         4      0.00030             -0.00063              0.00018         *
 * O         5     -0.00023             -0.00036             -0.00020         *
 * O         6     -0.00023             -0.00036             -0.00020         *
 * O         7     -0.00030              0.00063             -0.00018         *
 * O         8     -0.00030              0.00063             -0.00018         *
 * O         9     -0.00013              0.00022              0.00026         *
 * O        10     -0.00013              0.00022              0.00025         *
 * O        11     -0.00058              0.00009             -0.00041         *
 * O        12     -0.00058              0.00010             -0.00041         *
 * O        13      0.00013             -0.00022             -0.00026         *
 * O        14      0.00013             -0.00022             -0.00025         *
 * O        15      0.00058             -0.00009              0.00041         *
 * O        16      0.00058             -0.00010              0.00041         *
 * O        17      0.00035              0.00054             -0.00041         *
 * O        18      0.00035              0.00054             -0.00041         *
 * O        19      0.00011              0.00030             -0.00051         *
 * O        20      0.00012              0.00030             -0.00051         *
 * O        21     -0.00035             -0.00054              0.00041         *
 * O        22     -0.00035             -0.00054              0.00041         *
 * O        23     -0.00011             -0.00030              0.00051         *
 * O        24     -0.00012             -0.00030              0.00051         *
 * Na        1      0.00040              0.00055              0.00037         *
 * Na        2      0.00040              0.00055              0.00037         *
 * Na        3     -0.00040             -0.00055             -0.00037         *
 * Na        4     -0.00040             -0.00055             -0.00037         *
 * Al        1      0.00047              0.00016              0.00004         *
 * Al        2      0.00047              0.00016              0.00004         *
 * Al        3     -0.00047             -0.00016             -0.00004         *
 * Al        4     -0.00047             -0.00016             -0.00004         *
 * Si        1      0.00001             -0.00087              0.00019         *
 * Si        2      0.00001             -0.00086              0.00018         *
 * Si        3      0.00022             -0.00039             -0.00046         *
 * Si        4      0.00022             -0.00039             -0.00046         *
 * Si        5     -0.00001              0.00087             -0.00019         *
 * Si        6     -0.00001              0.00086             -0.00018         *
 * Si        7     -0.00022              0.00039              0.00046         *
 * Si        8     -0.00022              0.00039              0.00046         *
 *                                                                            *
 ******************************************************************************
 
 *********** Symmetrised Stress Tensor ***********
 *                                               *
 *          Cartesian components (GPa)           *
 * --------------------------------------------- *
 *             x             y             z     *
 *                                               *
 *  x     -1.170288      0.147637      0.066063  *
 *  y      0.147637     -3.094500      1.008940  *
 *  z      0.066063      1.008940     -3.330657  *
 *                                               *
 *  Pressure:    2.5318                          *
 *                                               *
 *************************************************
 
 Pseudo atomic calculation performed for O 2s2 2p4
 
 Converged in 36 iterations to a total energy of -429.6485 eV
 
 
 Pseudo atomic calculation performed for Na 2s2 2p6 3s1
 
 Converged in 33 iterations to a total energy of -1302.8467 eV
 
 
 Pseudo atomic calculation performed for Al 3s2 3p1
 
 Converged in 20 iterations to a total energy of -52.7392 eV
 
 
 Pseudo atomic calculation performed for Si 3s2 3p2
 
 Converged in 21 iterations to a total energy of -101.9044 eV
 
Charge spilling parameter for spin component 1 = 0.85%
 
     Atomic Populations (Mulliken)
     -----------------------------
Species   Ion     s      p      d      f     Total  Charge (e)
==============================================================
  O        1     1.85   5.24   0.00   0.00   7.08    -1.08
  O        2     1.85   5.24   0.00   0.00   7.08    -1.08
  O        3     1.85   5.23   0.00   0.00   7.08    -1.08
  O        4     1.85   5.23   0.00   0.00   7.08    -1.08
  O        5     1.85   5.24   0.00   0.00   7.08    -1.08
  O        6     1.85   5.24   0.00   0.00   7.08    -1.08
  O        7     1.85   5.23   0.00   0.00   7.08    -1.08
  O        8     1.85   5.23   0.00   0.00   7.08    -1.08
  O        9     1.84   5.29   0.00   0.00   7.12    -1.12
  O       10     1.84   5.29   0.00   0.00   7.12    -1.12
  O       11     1.84   5.29   0.00   0.00   7.12    -1.12
  O       12     1.84   5.29   0.00   0.00   7.12    -1.12
  O       13     1.84   5.29   0.00   0.00   7.12    -1.12
  O       14     1.84   5.29   0.00   0.00   7.12    -1.12
  O       15     1.84   5.29   0.00   0.00   7.12    -1.12
  O       16     1.84   5.29   0.00   0.00   7.12    -1.12
  O       17     1.83   5.30   0.00   0.00   7.12    -1.12
  O       18     1.83   5.30   0.00   0.00   7.12    -1.12
  O       19     1.83   5.30   0.00   0.00   7.12    -1.12
  O       20     1.83   5.30   0.00   0.00   7.12    -1.12
  O       21     1.83   5.30   0.00   0.00   7.12    -1.12
  O       22     1.83   5.30   0.00   0.00   7.12    -1.12
  O       23     1.83   5.30   0.00   0.00   7.12    -1.12
  O       24     1.83   5.30   0.00   0.00   7.12    -1.12
  Na       1     2.04   5.78   0.00   0.00   7.82     1.18
  Na       2     2.04   5.78   0.00   0.00   7.82     1.18
  Na       3     2.04   5.78   0.00   0.00   7.82     1.18
  Na       4     2.04   5.78   0.00   0.00   7.82     1.18
  Al       1     0.51   0.92   0.00   0.00   1.43     1.57
  Al       2     0.51   0.92   0.00   0.00   1.43     1.57
  Al       3     0.51   0.92   0.00   0.00   1.43     1.57
  Al       4     0.51   0.92   0.00   0.00   1.43     1.57
  Si       1     0.69   1.36   0.00   0.00   2.05     1.95
  Si       2     0.69   1.36   0.00   0.00   2.05     1.95
  Si       3     0.69   1.36   0.00   0.00   2.05     1.95
  Si       4     0.69   1.36   0.00   0.00   2.05     1.95
  Si       5     0.69   1.36   0.00   0.00   2.05     1.95
  Si       6     0.69   1.36   0.00   0.00   2.05     1.95
  Si       7     0.69   1.36   0.00   0.00   2.05     1.95
  Si       8     0.69   1.36   0.00   0.00   2.05     1.95
==============================================================
 
     Bond                     Population      Length (A)
============================================================
   O 012 --   Si 004               0.76        1.59434
   O 016 --   Si 008               0.76        1.59434
   O 015 --   Si 007               0.76        1.59434
   O 011 --   Si 003               0.76        1.59434
   O 013 --   Si 005               0.76        1.59624
   O 009 --   Si 001               0.76        1.59624
   O 010 --   Si 002               0.76        1.59624
   O 014 --   Si 006               0.76        1.59624
   O 024 --   Si 008               0.56        1.63148
   O 020 --   Si 004               0.56        1.63148
   O 023 --   Si 007               0.56        1.63148
   O 019 --   Si 003               0.56        1.63148
   O 018 --   Si 002               0.56        1.63350
   O 022 --   Si 006               0.56        1.63350
   O 021 --   Si 005               0.56        1.63350
   O 017 --   Si 001               0.56        1.63350
   O 024 --   Si 002               0.58        1.64061
   O 020 --   Si 006               0.58        1.64061
   O 019 --   Si 005               0.58        1.64061
   O 023 --   Si 001               0.58        1.64061
   O 004 --   Si 004               0.59        1.64186
   O 008 --   Si 008               0.59        1.64186
   O 003 --   Si 003               0.59        1.64186
   O 007 --   Si 007               0.59        1.64186
   O 001 --   Si 001               0.59        1.64271
   O 005 --   Si 005               0.59        1.64271
   O 002 --   Si 002               0.59        1.64271
   O 006 --   Si 006               0.59        1.64271
   O 018 --   Si 008               0.58        1.64461
   O 022 --   Si 004               0.58        1.64461
   O 021 --   Si 003               0.58        1.64461
   O 017 --   Si 007               0.58        1.64461
   O 014 --   Al 003               0.42        1.85970
   O 010 --   Al 001               0.42        1.85970
   O 009 --   Al 002               0.42        1.85970
   O 013 --   Al 004               0.42        1.85970
   O 011 --   Al 002               0.42        1.86169
   O 015 --   Al 004               0.42        1.86169
   O 012 --   Al 001               0.42        1.86169
   O 016 --   Al 003               0.42        1.86169
   O 003 --   Al 003               0.33        1.94469
   O 007 --   Al 001               0.33        1.94469
   O 004 --   Al 004               0.33        1.94469
   O 008 --   Al 002               0.33        1.94469
   O 005 --   Al 001               0.32        1.94684
   O 001 --   Al 003               0.32        1.94684
   O 006 --   Al 002               0.32        1.94685
   O 002 --   Al 004               0.32        1.94685
   O 006 --   Al 004               0.31        1.99536
   O 002 --   Al 002               0.31        1.99536
   O 001 --   Al 001               0.31        1.99536
   O 005 --   Al 003               0.31        1.99536
   O 008 --   Al 004               0.31        2.02113
   O 004 --   Al 002               0.31        2.02113
   O 007 --   Al 003               0.31        2.02113
   O 003 --   Al 001               0.31        2.02113
   O 005 --   Na 003              -0.01        2.36699
   O 001 --   Na 001              -0.01        2.36699
   O 006 --   Na 004              -0.01        2.36699
   O 002 --   Na 002              -0.01        2.36699
   O 007 --   Na 003              -0.01        2.36757
   O 003 --   Na 001              -0.01        2.36757
   O 008 --   Na 004              -0.01        2.36757
   O 004 --   Na 002              -0.01        2.36757
   O 018 --   Na 001              -0.04        2.37861
   O 022 --   Na 003              -0.04        2.37861
   O 017 --   Na 002              -0.04        2.37862
   O 021 --   Na 004              -0.04        2.37862
   O 024 --   Na 003              -0.03        2.37878
   O 020 --   Na 001              -0.03        2.37878
   O 019 --   Na 002              -0.03        2.37878
   O 023 --   Na 004              -0.03        2.37878
   O 010 --   Na 003              -0.06        2.41825
   O 014 --   Na 001              -0.06        2.41825
   O 009 --   Na 004              -0.06        2.41825
   O 013 --   Na 002              -0.06        2.41825
   O 016 --   Na 001              -0.05        2.42118
   O 012 --   Na 003              -0.05        2.42118
   O 011 --   Na 004              -0.05        2.42118
   O 015 --   Na 002              -0.05        2.42118
   O 003 --    O 007              -0.10        2.48933
   O 004 --    O 008              -0.10        2.48933
   O 001 --    O 005              -0.10        2.49236
   O 002 --    O 006              -0.10        2.49236
   O 010 --    O 024              -0.10        2.57171
   O 014 --    O 020              -0.10        2.57171
   O 013 --    O 019              -0.10        2.57171
   O 009 --    O 023              -0.10        2.57171
   O 012 --    O 022              -0.10        2.58620
   O 016 --    O 018              -0.10        2.58620
   O 015 --    O 017              -0.10        2.58620
   O 011 --    O 021              -0.10        2.58620
   O 018 --    O 024              -0.17        2.61223
   O 020 --    O 022              -0.17        2.61223
   O 017 --    O 023              -0.17        2.61223
   O 019 --    O 021              -0.17        2.61223
   O 012 --    O 020              -0.09        2.63562
   O 016 --    O 024              -0.09        2.63562
   O 015 --    O 023              -0.09        2.63562
   O 011 --    O 019              -0.09        2.63562
   O 005 --    O 019              -0.08        2.64429
   O 001 --    O 023              -0.08        2.64429
   O 006 --    O 020              -0.08        2.64429
   O 002 --    O 024              -0.08        2.64429
   O 004 --    O 020              -0.08        2.64765
   O 008 --    O 024              -0.08        2.64765
   O 003 --    O 019              -0.08        2.64765
   O 007 --    O 023              -0.08        2.64765
   O 003 --    O 021              -0.08        2.64884
   O 007 --    O 017              -0.08        2.64884
   O 004 --    O 022              -0.08        2.64884
   O 008 --    O 018              -0.08        2.64884
   O 002 --    O 018              -0.08        2.64967
   O 006 --    O 022              -0.08        2.64967
   O 005 --    O 021              -0.08        2.64967
   O 001 --    O 017              -0.08        2.64967
   O 010 --    O 018              -0.08        2.65545
   O 014 --    O 022              -0.08        2.65545
   O 013 --    O 021              -0.08        2.65545
   O 009 --    O 017              -0.08        2.65545
   O 001 --    O 014              -0.08        2.66456
   O 005 --    O 010              -0.08        2.66456
   O 006 --    O 009              -0.08        2.66457
   O 002 --    O 013              -0.08        2.66457
   O 003 --    O 016              -0.07        2.69864
   O 007 --    O 012              -0.07        2.69864
   O 008 --    O 011              -0.07        2.69864
   O 004 --    O 015              -0.07        2.69864
   O 017 --   Na 004              -0.01        2.70111
   O 021 --   Na 002              -0.01        2.70111
   O 022 --   Na 001              -0.01        2.70111
   O 018 --   Na 003              -0.01        2.70111
   O 002 --    O 011              -0.06        2.70649
   O 006 --    O 015              -0.06        2.70649
   O 005 --    O 016              -0.06        2.70649
   O 001 --    O 012              -0.06        2.70649
   O 006 --    O 008              -0.05        2.73533
   O 002 --    O 004              -0.05        2.73533
   O 005 --    O 007              -0.05        2.73533
   O 001 --    O 003              -0.05        2.73533
   O 007 --    O 014              -0.05        2.73558
   O 003 --    O 010              -0.05        2.73558
   O 004 --    O 009              -0.05        2.73558
   O 008 --    O 013              -0.05        2.73558
   O 023 --   Na 002              -0.02        2.75536
   O 019 --   Na 004              -0.02        2.75536
   O 024 --   Na 001              -0.02        2.75537
   O 020 --   Na 003              -0.02        2.75537
   O 002 --    O 010              -0.06        2.79025
   O 006 --    O 014              -0.06        2.79025
   O 005 --    O 013              -0.06        2.79025
   O 001 --    O 009              -0.06        2.79025
   O 004 --    O 012              -0.06        2.79359
   O 008 --    O 016              -0.06        2.79359
   O 007 --    O 015              -0.06        2.79359
   O 003 --    O 011              -0.06        2.79359
   O 009 --    O 011              -0.05        2.81280
   O 013 --    O 015              -0.05        2.81280
   O 014 --    O 016              -0.05        2.81280
   O 010 --    O 012              -0.05        2.81280
   O 005 --    O 012              -0.04        2.82431
   O 001 --    O 016              -0.04        2.82431
   O 006 --    O 011              -0.04        2.82431
   O 002 --    O 015              -0.04        2.82431
   O 019 --    O 023              -0.03        2.82485
   O 020 --    O 024              -0.03        2.82485
   O 017 --    O 021              -0.03        2.83208
   O 018 --    O 022              -0.03        2.83208
   O 007 --    O 010              -0.04        2.84301
   O 003 --    O 014              -0.04        2.84301
   O 008 --    O 009              -0.04        2.84302
   O 004 --    O 013              -0.04        2.84302
   O 014 --    O 017              -0.03        2.90461
   O 010 --    O 021              -0.03        2.90461
   O 013 --    O 018              -0.03        2.90461
   O 009 --    O 022              -0.03        2.90461
   O 003 --    O 005              -0.06        2.91241
   O 001 --    O 007              -0.06        2.91241
   O 004 --    O 006              -0.06        2.91241
   O 002 --    O 008              -0.06        2.91241
   O 016 --    O 019              -0.02        2.91822
   O 012 --    O 023              -0.02        2.91822
   O 015 --    O 020              -0.02        2.91822
   O 011 --    O 024              -0.02        2.91822
============================================================
 
 
Writing model to jadeite_4_30_GPa_cij__1__5.check
 
Writing analysis data to jadeite_4_30_GPa_cij__1__5.castep_bin
Initialisation time =      2.30 s
Calculation time    =   3776.66 s
Finalisation time   =      1.33 s
Total time          =   3780.29 s
Peak Memory Use     = 284236 kB
