 +-------------------------------------------------+
 |                                                 |
 |      CCC   AA    SSS  TTTTT  EEEEE  PPPP        |
 |     C     A  A  S       T    E      P   P       |
 |     C     AAAA   SS     T    EEE    PPPP        |
 |     C     A  A     S    T    E      P           |
 |      CCC  A  A  SSS     T    EEEEE  P           |
 |                                                 |
 +-------------------------------------------------+
 |                                                 |
 | Welcome to Academic Release CASTEP version 5.02 |
 | Ab Initio Total Energy Program                  |
 |                                                 |
 | Authors:                                        |
 | M. Segall, M. Probert, C. Pickard, P. Hasnip,   |
 | S. Clark, K. Refson, M. Payne                   |
 |                                                 |
 | Contributors:                                   |
 | P. Lindan, P. Haynes, J. White, V. Milman,      |
 | N. Govind, M. Gibson, P. Tulip, V. Cocula,      |
 | B. Montanari, D. Quigley, M. Glover,            |
 | L. Bernasconi, A. Perlov, M. Plummer            |
 |                                                 |
 | Copyright (c) 2000 - 2009                       |
 |                                                 |
 |     Distributed under the terms of an           |
 |     Agreement between the United Kingdom        |
 |     Car-Parrinello (UKCP) Consortium,           |
 |     Daresbury Laboratory and Accelrys, Inc.     |
 |                                                 |
 | Please cite                                     |
 |                                                 |
 |     "First principles methods using CASTEP"     |
 |                                                 |
 |         Zeitschrift fuer Kristallographie       |
 |           220(5-6) pp. 567-570 (2005)           |
 |                                                 |
 | S. J. Clark, M. D. Segall, C. J. Pickard,       |
 | P. J. Hasnip, M. J. Probert, K. Refson,         |
 | M. C. Payne                                     |
 |                                                 |
 |       in all publications arising from          |
 |              your use of CASTEP                 |
 |                                                 |
 +-------------------------------------------------+
 
 
 Pseudo atomic calculation performed for O 2s2 2p4
 
 Converged in 36 iterations to a total energy of -429.6485 eV
 
 
 Pseudo atomic calculation performed for Na 2s2 2p6 3s1
 
 Converged in 33 iterations to a total energy of -1302.8467 eV
 
 
 Pseudo atomic calculation performed for Al 3s2 3p1
 
 Converged in 20 iterations to a total energy of -52.7392 eV
 
 
 Pseudo atomic calculation performed for Si 3s2 3p2
 
 Converged in 21 iterations to a total energy of -101.9044 eV
 
Calculation parallelised over   36 nodes.
K-points are distributed over    6 groups, each containing    6 nodes.

 ************************************ Title ************************************
 

 ***************************** General Parameters ******************************
  
 output verbosity                               : normal  (1)
 write checkpoint data to                       : jadeite_4_30_GPa_cij__1__1.check
 type of calculation                            : geometry optimization
 stress calculation                             : on
 density difference calculation                 : off
 electron localisation func (ELF) calculation   : off
 Hirshfeld analysis                             : off
 unlimited duration calculation
 timing information                             : on
 memory usage estimate                          : on
 write final potential to formatted file        : off
 write final density to formatted file          : off
  
 output         length unit                     : A
 output           mass unit                     : amu
 output           time unit                     : ps
 output         charge unit                     : e
 output         energy unit                     : eV
 output          force unit                     : eV/A
 output       velocity unit                     : A/ps
 output       pressure unit                     : GPa
 output     inv_length unit                     : 1/A
 output      frequency unit                     : cm-1
 output force constant unit                     : eV/A**2
 output         volume unit                     : A**3
 output   IR intensity unit                     : (D/A)**2/amu
 output         dipole unit                     : D
 output         efield unit                     : eV/A/e
  
 wavefunctions paging                           : none
 data distribution                              : optimal for this architecture
 optimization strategy                          : maximize speed(+++)

 *********************** Exchange-Correlation Parameters ***********************
  
 using functional                               : Perdew Burke Ernzerhof
 Divergence correction                          : off
 DFT+D: Semi-empirical dispersion correction    : off

 ************************* Pseudopotential Parameters **************************
  
 pseudopotential representation                 : reciprocal space
 <beta|phi> representation                      : reciprocal space

 **************************** Basis Set Parameters *****************************
  
 plane wave basis set cut-off                   :   700.0000   eV
 finite basis set correction                    : none

 **************************** Electronic Parameters ****************************
  
 number of  electrons                           :  224.0    
 net charge of system                           :  0.000    
 net spin   of system                           :  0.000    
 number of  up  spins                           :  112.0    
 number of down spins                           :  112.0    
 treating system as non-spin-polarized
 number of bands                                :        112

 ********************* Electronic Minimization Parameters **********************
  
 Method: Treating system as non-metallic,
         and number of  SD  steps               :          1
         and number of  CG  steps               :          4
  
 total energy / atom convergence tol.           : 0.1000E-07   eV
 max force / atom convergence tol.              : ignored
 convergence tolerance window                   :          3   cycles
 max. number of SCF cycles                      :        100

 *********************** Population Analysis Parameters ************************
  
 Population analysis with cutoff                :  3.000       A

 ********************** Geometry Optimization Parameters ***********************
  
 optimization method                            : BFGS
 variable cell method                           : fixed basis quality
 max. number of steps                           :        300
 estimated bulk modulus                         :  500.0       GPa
 estimated <frequency>                          :  1668.       cm-1
 line minimiser tolerance                       :     0.4000
 total energy convergence tolerance             : 0.2000E-06   eV/atom
        max ionic |force| tolerance             : 0.1000E-02   eV/A
 max ionic |displacement| tolerance             : 0.1000E-02   A
   max |stress component| tolerance             : 0.1000E-02   GPa
 convergence tolerance window                   :          2   steps
 backup results every                           :          1   steps

 *******************************************************************************
  
 
                           -------------------------------
                                      Unit Cell
                           -------------------------------
        Real Lattice(A)                      Reciprocal Lattice(1/A)
   9.0146726   0.0000000  -2.8290832        0.6969954   0.0000000   0.0000000
   0.0000000   8.5603493   0.0333333        0.0000000   0.7339870   0.0000000
   0.0000000   0.0000000   5.2199179        0.3777565  -0.0046871   1.2036943
 
                       Lattice parameters(A)       Cell Angles
                    a =    9.448176          alpha =   89.776896
                    b =    8.560414          beta  =  107.423471
                    c =    5.219918          gamma =   90.066804
 
                       Current cell volume =  402.814521       A**3
 
                           -------------------------------
                                     Cell Contents
                           -------------------------------
                         Total number of ions in cell =   40
                      Total number of species in cell =    4
                        Max number of any one species =   24
 
            xxxxxxxxxxxxxxxxxxxxxxxxxxxxxxxxxxxxxxxxxxxxxxxxxxxxxxxxxxxx
            x  Element    Atom        Fractional coordinates of atoms  x
            x            Number           u          v          w      x
            x----------------------------------------------------------x
            x  O            1         0.109277   0.076953   0.129205   x
            x  O            2         0.609279   0.576952   0.129208   x
            x  O            3         0.890723   0.076953   0.370795   x
            x  O            4         0.390721   0.576952   0.370792   x
            x  O            5         0.890723   0.923047   0.870795   x
            x  O            6         0.390721   0.423048   0.870792   x
            x  O            7         0.109277   0.923047   0.629205   x
            x  O            8         0.609279   0.423048   0.629208   x
            x  O            9         0.361047   0.263746   0.295383   x
            x  O           10         0.861046   0.763747   0.295382   x
            x  O           11         0.638953   0.263746   0.204617   x
            x  O           12         0.138954   0.763747   0.204618   x
            x  O           13         0.638953   0.736254   0.704617   x
            x  O           14         0.138954   0.236253   0.704618   x
            x  O           15         0.361047   0.736254   0.795383   x
            x  O           16         0.861046   0.236253   0.795382   x
            x  O           17         0.354029   0.008469   1.005059   x
            x  O           18         0.854032   0.508466   1.005069   x
            x  O           19         0.645971   0.008469   0.494941   x
            x  O           20         0.145968   0.508466   0.494931   x
            x  O           21         0.645971   0.991530  -0.005059   x
            x  O           22         0.145968   0.491534  -0.005069   x
            x  O           23         0.354029   0.991530   0.505059   x
            x  O           24         0.854032   0.491534   0.505069   x
            x  Na           1         0.000000   0.301230   0.250000   x
            x  Na           2         0.500000   0.801235   0.250000   x
            x  Na           3         0.000000   0.698770   0.750000   x
            x  Na           4         0.500000   0.198765   0.750000   x
            x  Al           1         0.000000   0.906276   0.250000   x
            x  Al           2         0.500000   0.406277   0.250000   x
            x  Al           3         0.000000   0.093724   0.750000   x
            x  Al           4         0.500000   0.593723   0.750000   x
            x  Si           1         0.290869   0.093825   0.228100   x
            x  Si           2         0.790871   0.593824   0.228106   x
            x  Si           3         0.709131   0.093825   0.271900   x
            x  Si           4         0.209129   0.593824   0.271894   x
            x  Si           5         0.709131   0.906176   0.771900   x
            x  Si           6         0.209129   0.406176   0.771894   x
            x  Si           7         0.290869   0.906176   0.728100   x
            x  Si           8         0.790871   0.406176   0.728106   x
            xxxxxxxxxxxxxxxxxxxxxxxxxxxxxxxxxxxxxxxxxxxxxxxxxxxxxxxxxxxx
 
 
                         No user defined ionic velocities
 
                           -------------------------------
                                   Details of Species
                           -------------------------------
 
                               Mass of species in AMU
                                    O   15.9994000
                                    Na   22.9897700
                                    Al   26.9815400
                                    Si   28.0855000
 
                          Electric Quadrupole Moment (Barn)
                                    O   -0.0255800 Isotope 17
                                    Na    0.1040000 Isotope 23
                                    Al    0.1466000 Isotope 27
                                    Si    1.0000000 No Isotope Defined
 
                          Files used for pseudopotentials:
                                    O O_00PBE.usp
                                    Na Na_00PBE.usp
                                    Al Al_00PBE.usp
                                    Si Si_00PBE.usp
 
                           -------------------------------
                              k-Points For BZ Sampling
                           -------------------------------
                       MP grid size for SCF calculation is  2  2  3
                         Number of kpoints used = 6
 
             +++++++++++++++++++++++++++++++++++++++++++++++++++++++
             +  Number       Fractional coordinates        Weight  +
             +-----------------------------------------------------+
             +     1  -0.250000   0.250000   0.333333   0.1666667  +
             +     2  -0.250000   0.250000   0.000000   0.1666667  +
             +     3   0.250000  -0.250000   0.333333   0.1666667  +
             +     4  -0.250000  -0.250000   0.333333   0.1666667  +
             +     5   0.250000   0.250000   0.000000   0.1666667  +
             +     6   0.250000   0.250000   0.333333   0.1666667  +
             +++++++++++++++++++++++++++++++++++++++++++++++++++++++
 
                           -------------------------------
                               Symmetry and Constraints
                           -------------------------------
 
                      Number of symmetry operations   = 2
                      Number of ionic constraints     = 3
                      Maximum deviation from symmetry = 0.580510E-15     ANG
               Point group of crystal =     2: Ci, -1, -1
           Set iprint > 1 for details on symmetry rotations/translations
 
                          Centre of mass is constrained
             Set iprint > 1 for details of linear ionic constraints
 
                         Number of cell constraints= 6
                         Cell constraints are:  0 0 0 0 0 0
 
                         External pressure/stress (GPa)
                          4.30000   0.00000   0.00000
                                    4.30000   0.00000
                                              4.30000
  
+---------------- MEMORY AND SCRATCH DISK ESTIMATES PER NODE -----------------+
|                                                     Memory          Disk    |
| Model and support data                               91.6 MB         0.0 MB |
| Electronic energy minimisation requirements          32.6 MB         0.0 MB |
|                                               ----------------------------- |
| Approx. total storage required per node             124.1 MB         0.0 MB |
|                                                                             |
| Requirements will fluctuate during execution and may exceed these estimates |
+-----------------------------------------------------------------------------+
------------------------------------------------------------------------ <-- SCF
SCF loop      Energy                           Energy gain       Timer   <-- SCF
                                               per atom          (sec)   <-- SCF
------------------------------------------------------------------------ <-- SCF
Initial  -1.64159650E+003                                          6.54  <-- SCF
      1  -1.65467073E+004                    3.72627769E+002      25.93  <-- SCF
      2  -1.68171770E+004                    6.76174433E+000      44.53  <-- SCF
      3  -1.68448367E+004                    6.91492530E-001      63.24  <-- SCF
      4  -1.68461299E+004                    3.23290142E-002      81.97  <-- SCF
      5  -1.68461435E+004                    3.39141595E-004     100.51  <-- SCF
      6  -1.68461438E+004                    7.50871493E-006     119.26  <-- SCF
      7  -1.68461438E+004                    2.43529727E-007     137.91  <-- SCF
      8  -1.68461438E+004                    8.17879693E-009     156.75  <-- SCF
      9  -1.68461438E+004                    2.78653882E-010     175.28  <-- SCF
------------------------------------------------------------------------ <-- SCF
 
Final energy =  -16846.14377708     eV
(energy not corrected for finite basis set)
 
 
Writing model to jadeite_4_30_GPa_cij__1__1.check
 
+---------------- MEMORY AND SCRATCH DISK ESTIMATES PER NODE -----------------+
|                                                     Memory          Disk    |
| Model and support data                               84.6 MB         0.0 MB |
| Geometry minimisation requirements                   37.9 MB         0.0 MB |
|                                               ----------------------------- |
| Approx. total storage required per node             122.5 MB         0.0 MB |
|                                                                             |
| Requirements will fluctuate during execution and may exceed these estimates |
+-----------------------------------------------------------------------------+
 
 
 *********************************** Forces ***********************************
 *                                                                            *
 *                        Cartesian components (eV/A)                         *
 * -------------------------------------------------------------------------- *
 *                   x                    y                    z              *
 *                                                                            *
 * O         1      0.11309             -0.00029             -0.00393         *
 * O         2      0.11293             -0.00023             -0.00397         *
 * O         3     -0.12485              0.00875              0.00881         *
 * O         4     -0.12469              0.00880              0.00884         *
 * O         5     -0.11309              0.00029              0.00393         *
 * O         6     -0.11293              0.00023              0.00397         *
 * O         7      0.12485             -0.00875             -0.00881         *
 * O         8      0.12469             -0.00880             -0.00884         *
 * O         9     -0.00466             -0.03345             -0.01771         *
 * O        10     -0.00453             -0.03337             -0.01770         *
 * O        11     -0.01975              0.00516              0.00303         *
 * O        12     -0.01988              0.00524              0.00302         *
 * O        13      0.00466              0.03345              0.01771         *
 * O        14      0.00453              0.03337              0.01770         *
 * O        15      0.01975             -0.00516             -0.00303         *
 * O        16      0.01988             -0.00524             -0.00302         *
 * O        17     -0.06687             -0.00258             -0.00112         *
 * O        18     -0.06693             -0.00251             -0.00116         *
 * O        19      0.00090             -0.00091              0.00296         *
 * O        20      0.00096             -0.00084              0.00300         *
 * O        21      0.06687              0.00258              0.00112         *
 * O        22      0.06693              0.00251              0.00116         *
 * O        23     -0.00090              0.00091             -0.00296         *
 * O        24     -0.00096              0.00084             -0.00300         *
 * Na        1      0.00819              0.00381             -0.00855         *
 * Na        2      0.00818              0.00369             -0.00855         *
 * Na        3     -0.00819             -0.00381              0.00855         *
 * Na        4     -0.00818             -0.00369              0.00855         *
 * Al        1      0.01409             -0.00758              0.00351         *
 * Al        2      0.01409             -0.00747              0.00351         *
 * Al        3     -0.01409              0.00758             -0.00351         *
 * Al        4     -0.01409              0.00747             -0.00351         *
 * Si        1     -0.10201              0.01397             -0.09330         *
 * Si        2     -0.10222              0.01399             -0.09332         *
 * Si        3      0.12073              0.00085             -0.09230         *
 * Si        4      0.12095              0.00089             -0.09228         *
 * Si        5      0.10201             -0.01397              0.09330         *
 * Si        6      0.10222             -0.01399              0.09332         *
 * Si        7     -0.12073             -0.00085              0.09230         *
 * Si        8     -0.12095             -0.00089              0.09228         *
 *                                                                            *
 ******************************************************************************
 BFGS: finished iteration     0 with enthalpy= -1.68353328E+004 eV
  
 +-----------+-----------------+-----------------+------------+-----+ <-- BFGS
 | Parameter |      value      |    tolerance    |    units   | OK? | <-- BFGS
 +-----------+-----------------+-----------------+------------+-----+ <-- BFGS
 |  dE/ion   |   0.000000E+000 |   2.000000E-007 |         eV | No  | <-- BFGS
 |  |F|max   |   1.521361E-001 |   1.000000E-003 |       eV/A | No  | <-- BFGS
 |  |dR|max  |   0.000000E+000 |   1.000000E-003 |          A | No  | <-- BFGS
 +-----------+-----------------+-----------------+------------+-----+ <-- BFGS
  

================================================================================
 Starting BFGS iteration          1 ...
================================================================================
 
Writing model to jadeite_4_30_GPa_cij__1__1.check
  
 +------------+-------------+-------------+-----------------+ <-- min BFGS
 |    Step    |   lambda    |   F.delta   |    enthalpy     | <-- min BFGS
 +------------+-------------+-------------+-----------------+ <-- min BFGS
 |  previous  |    0.000000 |    0.000055 |   -16835.332843 | <-- min BFGS
 +------------+-------------+-------------+-----------------+ <-- min BFGS
  

--------------------------------------------------------------------------------
 BFGS: starting iteration         1 with trial guess (lambda=  1.000000)
--------------------------------------------------------------------------------
 
                           -------------------------------
                                     Cell Contents
                           -------------------------------
 
            xxxxxxxxxxxxxxxxxxxxxxxxxxxxxxxxxxxxxxxxxxxxxxxxxxxxxxxxxxxx
            x  Element    Atom        Fractional coordinates of atoms  x
            x            Number           u          v          w      x
            x----------------------------------------------------------x
            x  O            1         0.109338   0.076953   0.129234   x
            x  O            2         0.609340   0.576951   0.129237   x
            x  O            3         0.890656   0.076958   0.370767   x
            x  O            4         0.390654   0.576956   0.370764   x
            x  O            5         0.890662   0.923047   0.870766   x
            x  O            6         0.390660   0.423049   0.870763   x
            x  O            7         0.109344   0.923042   0.629233   x
            x  O            8         0.609346   0.423044   0.629236   x
            x  O            9         0.361044   0.263728   0.295365   x
            x  O           10         0.861044   0.763728   0.295364   x
            x  O           11         0.638942   0.263749   0.204614   x
            x  O           12         0.138943   0.763750   0.204615   x
            x  O           13         0.638956   0.736272   0.704635   x
            x  O           14         0.138956   0.236272   0.704636   x
            x  O           15         0.361058   0.736251   0.795386   x
            x  O           16         0.861057   0.236250   0.795385   x
            x  O           17         0.353993   0.008468   1.005039   x
            x  O           18         0.853996   0.508465   1.005048   x
            x  O           19         0.645971   0.008469   0.494944   x
            x  O           20         0.145969   0.508466   0.494934   x
            x  O           21         0.646007   0.991532  -0.005039   x
            x  O           22         0.146004   0.491535  -0.005048   x
            x  O           23         0.354029   0.991531   0.505056   x
            x  O           24         0.854031   0.491534   0.505066   x
            x  Na           1         0.000004   0.301232   0.249994   x
            x  Na           2         0.500004   0.801237   0.249994   x
            x  Na           3        -0.000004   0.698768   0.750006   x
            x  Na           4         0.499996   0.198763   0.750006   x
            x  Al           1         0.000008   0.906272   0.250007   x
            x  Al           2         0.500008   0.406272   0.250007   x
            x  Al           3        -0.000008   0.093728   0.749993   x
            x  Al           4         0.499992   0.593728   0.749993   x
            x  Si           1         0.290814   0.093832   0.227984   x
            x  Si           2         0.790816   0.593831   0.227990   x
            x  Si           3         0.709196   0.093825   0.271850   x
            x  Si           4         0.209194   0.593824   0.271844   x
            x  Si           5         0.709186   0.906168   0.772016   x
            x  Si           6         0.209184   0.406169   0.772010   x
            x  Si           7         0.290804   0.906175   0.728150   x
            x  Si           8         0.790806   0.406176   0.728156   x
            xxxxxxxxxxxxxxxxxxxxxxxxxxxxxxxxxxxxxxxxxxxxxxxxxxxxxxxxxxxx
 
 
------------------------------------------------------------------------ <-- SCF
SCF loop      Energy                           Energy gain       Timer   <-- SCF
                                               per atom          (sec)   <-- SCF
------------------------------------------------------------------------ <-- SCF
Initial  -1.68461396E+004                                        186.04  <-- SCF
      1  -1.68461451E+004                    1.37142058E-004     204.86  <-- SCF
      2  -1.68461451E+004                    5.61900178E-008     223.51  <-- SCF
      3  -1.68461451E+004                    7.62953247E-010     242.08  <-- SCF
      4  -1.68461451E+004                    1.64732936E-011     264.01  <-- SCF
------------------------------------------------------------------------ <-- SCF
 
Final energy =  -16846.14506806     eV
(energy not corrected for finite basis set)
 
 
 *********************************** Forces ***********************************
 *                                                                            *
 *                        Cartesian components (eV/A)                         *
 * -------------------------------------------------------------------------- *
 *                   x                    y                    z              *
 *                                                                            *
 * O         1      0.07884             -0.00366             -0.00554         *
 * O         2      0.07868             -0.00361             -0.00558         *
 * O         3     -0.08645              0.00406              0.00664         *
 * O         4     -0.08629              0.00412              0.00667         *
 * O         5     -0.07884              0.00366              0.00554         *
 * O         6     -0.07868              0.00361              0.00558         *
 * O         7      0.08645             -0.00406             -0.00664         *
 * O         8      0.08629             -0.00412             -0.00667         *
 * O         9     -0.00298             -0.02660             -0.01994         *
 * O        10     -0.00288             -0.02657             -0.01993         *
 * O        11     -0.01688              0.00120              0.00019         *
 * O        12     -0.01698              0.00123              0.00018         *
 * O        13      0.00298              0.02660              0.01994         *
 * O        14      0.00288              0.02657              0.01993         *
 * O        15      0.01688             -0.00120             -0.00019         *
 * O        16      0.01698             -0.00123             -0.00018         *
 * O        17     -0.06284             -0.00342             -0.00290         *
 * O        18     -0.06291             -0.00335             -0.00295         *
 * O        19      0.01068             -0.00065              0.00017         *
 * O        20      0.01075             -0.00059              0.00022         *
 * O        21      0.06284              0.00342              0.00290         *
 * O        22      0.06291              0.00335              0.00295         *
 * O        23     -0.01068              0.00065             -0.00017         *
 * O        24     -0.01075              0.00059             -0.00022         *
 * Na        1      0.00900              0.00689             -0.00702         *
 * Na        2      0.00900              0.00678             -0.00702         *
 * Na        3     -0.00900             -0.00689              0.00702         *
 * Na        4     -0.00900             -0.00678              0.00702         *
 * Al        1      0.01415             -0.01325              0.00284         *
 * Al        2      0.01415             -0.01317              0.00284         *
 * Al        3     -0.01415              0.01325             -0.00284         *
 * Al        4     -0.01415              0.01317             -0.00284         *
 * Si        1     -0.06894              0.00820             -0.06960         *
 * Si        2     -0.06911              0.00825             -0.06962         *
 * Si        3      0.08022              0.00290             -0.06764         *
 * Si        4      0.08039              0.00296             -0.06763         *
 * Si        5      0.06894             -0.00820              0.06960         *
 * Si        6      0.06911             -0.00825              0.06962         *
 * Si        7     -0.08022             -0.00290              0.06764         *
 * Si        8     -0.08039             -0.00296              0.06763         *
 *                                                                            *
 ******************************************************************************
  
 +------------+-------------+-------------+-----------------+ <-- min BFGS
 |    Step    |   lambda    |   F.delta   |    enthalpy     | <-- min BFGS
 +------------+-------------+-------------+-----------------+ <-- min BFGS
 |  previous  |    0.000000 |    0.000055 |   -16835.332843 | <-- min BFGS
 | trial step |    1.000000 |    0.000040 |   -16835.334134 | <-- min BFGS
 +------------+-------------+-------------+-----------------+ <-- min BFGS
  

--------------------------------------------------------------------------------
 BFGS: improving iteration         1 with line minimization (lambda=  3.524957)
--------------------------------------------------------------------------------
 
                           -------------------------------
                                     Cell Contents
                           -------------------------------
 
            xxxxxxxxxxxxxxxxxxxxxxxxxxxxxxxxxxxxxxxxxxxxxxxxxxxxxxxxxxxx
            x  Element    Atom        Fractional coordinates of atoms  x
            x            Number           u          v          w      x
            x----------------------------------------------------------x
            x  O            1         0.109491   0.076952   0.129308   x
            x  O            2         0.609493   0.576951   0.129311   x
            x  O            3         0.890487   0.076970   0.370696   x
            x  O            4         0.390485   0.576969   0.370693   x
            x  O            5         0.890509   0.923048   0.870692   x
            x  O            6         0.390507   0.423049   0.870689   x
            x  O            7         0.109513   0.923030   0.629304   x
            x  O            8         0.609515   0.423031   0.629307   x
            x  O            9         0.361038   0.263680   0.295321   x
            x  O           10         0.861037   0.763681   0.295320   x
            x  O           11         0.638916   0.263757   0.204607   x
            x  O           12         0.138916   0.763757   0.204607   x
            x  O           13         0.638962   0.736320   0.704679   x
            x  O           14         0.138963   0.236319   0.704680   x
            x  O           15         0.361084   0.736243   0.795393   x
            x  O           16         0.861084   0.236243   0.795393   x
            x  O           17         0.353903   0.008464   1.004987   x
            x  O           18         0.853905   0.508461   1.004997   x
            x  O           19         0.645973   0.008468   0.494952   x
            x  O           20         0.145970   0.508464   0.494942   x
            x  O           21         0.646097   0.991536  -0.004987   x
            x  O           22         0.146095   0.491539  -0.004997   x
            x  O           23         0.354027   0.991532   0.505048   x
            x  O           24         0.854030   0.491536   0.505058   x
            x  Na           1         0.000015   0.301238   0.249980   x
            x  Na           2         0.500015   0.801242   0.249980   x
            x  Na           3        -0.000015   0.698762   0.750020   x
            x  Na           4         0.499985   0.198758   0.750020   x
            x  Al           1         0.000027   0.906261   0.250026   x
            x  Al           2         0.500027   0.406262   0.250026   x
            x  Al           3        -0.000027   0.093739   0.749974   x
            x  Al           4         0.499973   0.593738   0.749974   x
            x  Si           1         0.290676   0.093852   0.227691   x
            x  Si           2         0.790678   0.593851   0.227696   x
            x  Si           3         0.709359   0.093826   0.271722   x
            x  Si           4         0.209358   0.593825   0.271717   x
            x  Si           5         0.709324   0.906148   0.772309   x
            x  Si           6         0.209322   0.406149   0.772304   x
            x  Si           7         0.290641   0.906174   0.728278   x
            x  Si           8         0.790642   0.406175   0.728283   x
            xxxxxxxxxxxxxxxxxxxxxxxxxxxxxxxxxxxxxxxxxxxxxxxxxxxxxxxxxxxx
 
 
------------------------------------------------------------------------ <-- SCF
SCF loop      Energy                           Energy gain       Timer   <-- SCF
                                               per atom          (sec)   <-- SCF
------------------------------------------------------------------------ <-- SCF
Initial  -1.68461263E+004                                        272.37  <-- SCF
      1  -1.68461464E+004                    5.03665240E-004     291.19  <-- SCF
      2  -1.68461464E+004                    2.06324136E-007     309.90  <-- SCF
      3  -1.68461464E+004                    2.40788509E-009     328.50  <-- SCF
      4  -1.68461464E+004                    4.78730927E-011     348.77  <-- SCF
------------------------------------------------------------------------ <-- SCF
 
Final energy =  -16846.14642318     eV
(energy not corrected for finite basis set)
 
 
 *********************************** Forces ***********************************
 *                                                                            *
 *                        Cartesian components (eV/A)                         *
 * -------------------------------------------------------------------------- *
 *                   x                    y                    z              *
 *                                                                            *
 * O         1     -0.00832             -0.01225             -0.00954         *
 * O         2     -0.00847             -0.01221             -0.00957         *
 * O         3      0.01138             -0.00781              0.00122         *
 * O         4      0.01153             -0.00776              0.00125         *
 * O         5      0.00832              0.01225              0.00954         *
 * O         6      0.00847              0.01221              0.00957         *
 * O         7     -0.01138              0.00781             -0.00122         *
 * O         8     -0.01153              0.00776             -0.00125         *
 * O         9      0.00126             -0.00934             -0.02558         *
 * O        10      0.00129             -0.00940             -0.02556         *
 * O        11     -0.00965             -0.00877             -0.00700         *
 * O        12     -0.00968             -0.00883             -0.00702         *
 * O        13     -0.00126              0.00934              0.02558         *
 * O        14     -0.00129              0.00940              0.02556         *
 * O        15      0.00965              0.00877              0.00700         *
 * O        16      0.00968              0.00883              0.00702         *
 * O        17     -0.05261             -0.00555             -0.00741         *
 * O        18     -0.05272             -0.00550             -0.00746         *
 * O        19      0.03527              0.00000             -0.00683         *
 * O        20      0.03537              0.00005             -0.00678         *
 * O        21      0.05261              0.00555              0.00741         *
 * O        22      0.05272              0.00550              0.00746         *
 * O        23     -0.03527              0.00000              0.00683         *
 * O        24     -0.03537             -0.00005              0.00678         *
 * Na        1      0.01106              0.01466             -0.00318         *
 * Na        2      0.01105              0.01457             -0.00317         *
 * Na        3     -0.01106             -0.01466              0.00318         *
 * Na        4     -0.01105             -0.01457              0.00317         *
 * Al        1      0.01431             -0.02760              0.00116         *
 * Al        2      0.01431             -0.02757              0.00116         *
 * Al        3     -0.01431              0.02760             -0.00116         *
 * Al        4     -0.01431              0.02757             -0.00116         *
 * Si        1      0.01508             -0.00614             -0.00998         *
 * Si        2      0.01504             -0.00604             -0.00999         *
 * Si        3     -0.02288              0.00828             -0.00563         *
 * Si        4     -0.02283              0.00839             -0.00562         *
 * Si        5     -0.01508              0.00614              0.00998         *
 * Si        6     -0.01504              0.00604              0.00999         *
 * Si        7      0.02288             -0.00828              0.00563         *
 * Si        8      0.02283             -0.00839              0.00562         *
 *                                                                            *
 ******************************************************************************
  
 +------------+-------------+-------------+-----------------+ <-- min BFGS
 |    Step    |   lambda    |   F.delta   |    enthalpy     | <-- min BFGS
 +------------+-------------+-------------+-----------------+ <-- min BFGS
 |  previous  |    0.000000 |    0.000055 |   -16835.332843 | <-- min BFGS
 | trial step |    1.000000 |    0.000040 |   -16835.334134 | <-- min BFGS
 |  line step |    3.524957 |    0.000000 |   -16835.335489 | <-- min BFGS
 +------------+-------------+-------------+-----------------+ <-- min BFGS
  
 BFGS: finished iteration     1 with enthalpy= -1.68353355E+004 eV
  
 +-----------+-----------------+-----------------+------------+-----+ <-- BFGS
 | Parameter |      value      |    tolerance    |    units   | OK? | <-- BFGS
 +-----------+-----------------+-----------------+------------+-----+ <-- BFGS
 |  dE/ion   |   6.615248E-005 |   2.000000E-007 |         eV | No  | <-- BFGS
 |  |F|max   |   5.353108E-002 |   1.000000E-003 |       eV/A | No  | <-- BFGS
 |  |dR|max  |   2.593571E-003 |   1.000000E-003 |          A | No  | <-- BFGS
 +-----------+-----------------+-----------------+------------+-----+ <-- BFGS
  

================================================================================
 Starting BFGS iteration          2 ...
================================================================================
 
Writing model to jadeite_4_30_GPa_cij__1__1.check
  
 +------------+-------------+-------------+-----------------+ <-- min BFGS
 |    Step    |   lambda    |   F.delta   |    enthalpy     | <-- min BFGS
 +------------+-------------+-------------+-----------------+ <-- min BFGS
 |  previous  |    0.000000 |    0.000006 |   -16835.335489 | <-- min BFGS
 +------------+-------------+-------------+-----------------+ <-- min BFGS
  

--------------------------------------------------------------------------------
 BFGS: starting iteration         2 with trial guess (lambda=  1.000000)
--------------------------------------------------------------------------------
 
                           -------------------------------
                                     Cell Contents
                           -------------------------------
 
            xxxxxxxxxxxxxxxxxxxxxxxxxxxxxxxxxxxxxxxxxxxxxxxxxxxxxxxxxxxx
            x  Element    Atom        Fractional coordinates of atoms  x
            x            Number           u          v          w      x
            x----------------------------------------------------------x
            x  O            1         0.109492   0.076946   0.129300   x
            x  O            2         0.609494   0.576944   0.129302   x
            x  O            3         0.890487   0.076966   0.370698   x
            x  O            4         0.390485   0.576965   0.370695   x
            x  O            5         0.890508   0.923054   0.870700   x
            x  O            6         0.390506   0.423056   0.870698   x
            x  O            7         0.109513   0.923034   0.629302   x
            x  O            8         0.609515   0.423035   0.629305   x
            x  O            9         0.361039   0.263673   0.295296   x
            x  O           10         0.861038   0.763674   0.295295   x
            x  O           11         0.638910   0.263752   0.204597   x
            x  O           12         0.138910   0.763753   0.204598   x
            x  O           13         0.638961   0.736327   0.704704   x
            x  O           14         0.138962   0.236326   0.704705   x
            x  O           15         0.361090   0.736248   0.795403   x
            x  O           16         0.861090   0.236247   0.795402   x
            x  O           17         0.353871   0.008461   1.004963   x
            x  O           18         0.853874   0.508458   1.004973   x
            x  O           19         0.645992   0.008468   0.494956   x
            x  O           20         0.145989   0.508464   0.494946   x
            x  O           21         0.646129   0.991539  -0.004963   x
            x  O           22         0.146126   0.491542  -0.004973   x
            x  O           23         0.354008   0.991532   0.505044   x
            x  O           24         0.854011   0.491536   0.505054   x
            x  Na           1         0.000022   0.301246   0.249980   x
            x  Na           2         0.500022   0.801250   0.249980   x
            x  Na           3        -0.000022   0.698754   0.750020   x
            x  Na           4         0.499978   0.198750   0.750020   x
            x  Al           1         0.000035   0.906245   0.250032   x
            x  Al           2         0.500035   0.406246   0.250032   x
            x  Al           3        -0.000035   0.093755   0.749968   x
            x  Al           4         0.499965   0.593754   0.749968   x
            x  Si           1         0.290679   0.093850   0.227675   x
            x  Si           2         0.790681   0.593849   0.227681   x
            x  Si           3         0.709353   0.093831   0.271706   x
            x  Si           4         0.209351   0.593830   0.271700   x
            x  Si           5         0.709321   0.906150   0.772325   x
            x  Si           6         0.209319   0.406151   0.772319   x
            x  Si           7         0.290647   0.906169   0.728294   x
            x  Si           8         0.790649   0.406170   0.728300   x
            xxxxxxxxxxxxxxxxxxxxxxxxxxxxxxxxxxxxxxxxxxxxxxxxxxxxxxxxxxxx
 
 
------------------------------------------------------------------------ <-- SCF
SCF loop      Energy                           Energy gain       Timer   <-- SCF
                                               per atom          (sec)   <-- SCF
------------------------------------------------------------------------ <-- SCF
Initial  -1.68461460E+004                                        358.29  <-- SCF
      1  -1.68461466E+004                    1.46475469E-005     377.11  <-- SCF
      2  -1.68461466E+004                    6.16549750E-009     396.20  <-- SCF
      3  -1.68461466E+004                    6.76719808E-011     416.64  <-- SCF
------------------------------------------------------------------------ <-- SCF
 
Final energy =  -16846.14656735     eV
(energy not corrected for finite basis set)
 
 
 *********************************** Forces ***********************************
 *                                                                            *
 *                        Cartesian components (eV/A)                         *
 * -------------------------------------------------------------------------- *
 *                   x                    y                    z              *
 *                                                                            *
 * O         1     -0.00797             -0.01143             -0.00915         *
 * O         2     -0.00810             -0.01138             -0.00917         *
 * O         3      0.01037             -0.00640              0.00140         *
 * O         4      0.01050             -0.00635              0.00142         *
 * O         5      0.00797              0.01143              0.00915         *
 * O         6      0.00810              0.01138              0.00917         *
 * O         7     -0.01037              0.00640             -0.00140         *
 * O         8     -0.01050              0.00635             -0.00142         *
 * O         9      0.00207             -0.00912             -0.02488         *
 * O        10      0.00211             -0.00917             -0.02486         *
 * O        11     -0.00993             -0.00799             -0.00755         *
 * O        12     -0.00997             -0.00803             -0.00756         *
 * O        13     -0.00207              0.00912              0.02488         *
 * O        14     -0.00211              0.00917              0.02486         *
 * O        15      0.00993              0.00799              0.00755         *
 * O        16      0.00997              0.00803              0.00756         *
 * O        17     -0.04690             -0.00538             -0.00687         *
 * O        18     -0.04701             -0.00533             -0.00692         *
 * O        19      0.03268             -0.00037             -0.00545         *
 * O        20      0.03279             -0.00032             -0.00540         *
 * O        21      0.04690              0.00538              0.00687         *
 * O        22      0.04701              0.00533              0.00692         *
 * O        23     -0.03268              0.00037              0.00545         *
 * O        24     -0.03279              0.00032              0.00540         *
 * Na        1      0.01124              0.01383             -0.00289         *
 * Na        2      0.01124              0.01374             -0.00289         *
 * Na        3     -0.01124             -0.01383              0.00289         *
 * Na        4     -0.01124             -0.01374              0.00289         *
 * Al        1      0.01336             -0.02456              0.00111         *
 * Al        2      0.01336             -0.02452              0.00111         *
 * Al        3     -0.01336              0.02456             -0.00111         *
 * Al        4     -0.01336              0.02452             -0.00111         *
 * Si        1      0.01055             -0.00579             -0.00615         *
 * Si        2      0.01049             -0.00571             -0.00616         *
 * Si        3     -0.01641              0.00762             -0.00203         *
 * Si        4     -0.01635              0.00769             -0.00202         *
 * Si        5     -0.01055              0.00579              0.00615         *
 * Si        6     -0.01049              0.00571              0.00616         *
 * Si        7      0.01641             -0.00762              0.00203         *
 * Si        8      0.01635             -0.00769              0.00202         *
 *                                                                            *
 ******************************************************************************
  
 +------------+-------------+-------------+-----------------+ <-- min BFGS
 |    Step    |   lambda    |   F.delta   |    enthalpy     | <-- min BFGS
 +------------+-------------+-------------+-----------------+ <-- min BFGS
 |  previous  |    0.000000 |    0.000006 |   -16835.335489 | <-- min BFGS
 | trial step |    1.000000 |    0.000005 |   -16835.335634 | <-- min BFGS
 +------------+-------------+-------------+-----------------+ <-- min BFGS
  

--------------------------------------------------------------------------------
 BFGS: improving iteration         2 with line minimization (lambda=  9.531093)
--------------------------------------------------------------------------------
 
                           -------------------------------
                                     Cell Contents
                           -------------------------------
 
            xxxxxxxxxxxxxxxxxxxxxxxxxxxxxxxxxxxxxxxxxxxxxxxxxxxxxxxxxxxx
            x  Element    Atom        Fractional coordinates of atoms  x
            x            Number           u          v          w      x
            x----------------------------------------------------------x
            x  O            1         0.109501   0.076887   0.129227   x
            x  O            2         0.609502   0.576885   0.129229   x
            x  O            3         0.890486   0.076933   0.370713   x
            x  O            4         0.390486   0.576932   0.370712   x
            x  O            5         0.890499   0.923113   0.870773   x
            x  O            6         0.390498   0.423115   0.870771   x
            x  O            7         0.109514   0.923067   0.629287   x
            x  O            8         0.609514   0.423068   0.629288   x
            x  O            9         0.361042   0.263613   0.295084   x
            x  O           10         0.861042   0.763614   0.295084   x
            x  O           11         0.638857   0.263712   0.204516   x
            x  O           12         0.138858   0.763713   0.204517   x
            x  O           13         0.638958   0.736387   0.704916   x
            x  O           14         0.138958   0.236386   0.704916   x
            x  O           15         0.361143   0.736288   0.795484   x
            x  O           16         0.861142   0.236287   0.795483   x
            x  O           17         0.353603   0.008433   1.004759   x
            x  O           18         0.853605   0.508430   1.004768   x
            x  O           19         0.646153   0.008467   0.494992   x
            x  O           20         0.146150   0.508464   0.494983   x
            x  O           21         0.646397   0.991567  -0.004759   x
            x  O           22         0.146395   0.491570  -0.004768   x
            x  O           23         0.353847   0.991533   0.505008   x
            x  O           24         0.853850   0.491536   0.505017   x
            x  Na           1         0.000076   0.301318   0.249978   x
            x  Na           2         0.500076   0.801322   0.249978   x
            x  Na           3        -0.000076   0.698682   0.750022   x
            x  Na           4         0.499924   0.198678   0.750022   x
            x  Al           1         0.000106   0.906110   0.250083   x
            x  Al           2         0.500106   0.406110   0.250083   x
            x  Al           3        -0.000106   0.093890   0.749917   x
            x  Al           4         0.499894   0.593890   0.749917   x
            x  Si           1         0.290705   0.093826   0.227543   x
            x  Si           2         0.790706   0.593826   0.227549   x
            x  Si           3         0.709299   0.093871   0.271565   x
            x  Si           4         0.209298   0.593871   0.271560   x
            x  Si           5         0.709295   0.906174   0.772457   x
            x  Si           6         0.209294   0.406174   0.772451   x
            x  Si           7         0.290701   0.906129   0.728435   x
            x  Si           8         0.790702   0.406129   0.728440   x
            xxxxxxxxxxxxxxxxxxxxxxxxxxxxxxxxxxxxxxxxxxxxxxxxxxxxxxxxxxxx
 
 
------------------------------------------------------------------------ <-- SCF
SCF loop      Energy                           Energy gain       Timer   <-- SCF
                                               per atom          (sec)   <-- SCF
------------------------------------------------------------------------ <-- SCF
Initial  -1.68461241E+004                                        424.95  <-- SCF
      1  -1.68461471E+004                    5.75396409E-004     443.56  <-- SCF
      2  -1.68461471E+004                    2.21213673E-007     461.91  <-- SCF
      3  -1.68461471E+004                    1.56782445E-009     480.34  <-- SCF
      4  -1.68461471E+004                    3.34106237E-011     499.49  <-- SCF
------------------------------------------------------------------------ <-- SCF
 
Final energy =  -16846.14714728     eV
(energy not corrected for finite basis set)
 
 
 *********************************** Forces ***********************************
 *                                                                            *
 *                        Cartesian components (eV/A)                         *
 * -------------------------------------------------------------------------- *
 *                   x                    y                    z              *
 *                                                                            *
 * O         1     -0.00519             -0.00440             -0.00574         *
 * O         2     -0.00512             -0.00432             -0.00574         *
 * O         3      0.00202              0.00564              0.00293         *
 * O         4      0.00195              0.00572              0.00293         *
 * O         5      0.00519              0.00440              0.00574         *
 * O         6      0.00512              0.00432              0.00574         *
 * O         7     -0.00202             -0.00564             -0.00293         *
 * O         8     -0.00195             -0.00572             -0.00293         *
 * O         9      0.00902             -0.00732             -0.01889         *
 * O        10      0.00910             -0.00722             -0.01886         *
 * O        11     -0.01232             -0.00133             -0.01224         *
 * O        12     -0.01241             -0.00123             -0.01226         *
 * O        13     -0.00902              0.00732              0.01889         *
 * O        14     -0.00910              0.00722              0.01886         *
 * O        15      0.01232              0.00133              0.01224         *
 * O        16      0.01241              0.00123              0.01226         *
 * O        17      0.00196             -0.00394             -0.00223         *
 * O        18      0.00185             -0.00390             -0.00227         *
 * O        19      0.01065             -0.00358              0.00627         *
 * O        20      0.01076             -0.00354              0.00631         *
 * O        21     -0.00196              0.00394              0.00223         *
 * O        22     -0.00185              0.00390              0.00227         *
 * O        23     -0.01065              0.00358             -0.00627         *
 * O        24     -0.01076              0.00354             -0.00631         *
 * Na        1      0.01276              0.00667             -0.00046         *
 * Na        2      0.01276              0.00657             -0.00046         *
 * Na        3     -0.01276             -0.00667              0.00046         *
 * Na        4     -0.01276             -0.00657              0.00046         *
 * Al        1      0.00526              0.00150              0.00068         *
 * Al        2      0.00526              0.00151              0.00068         *
 * Al        3     -0.00526             -0.00150             -0.00068         *
 * Al        4     -0.00526             -0.00151             -0.00068         *
 * Si        1     -0.02815             -0.00271              0.02660         *
 * Si        2     -0.02834             -0.00286              0.02655         *
 * Si        3      0.03874              0.00202              0.02877         *
 * Si        4      0.03893              0.00187              0.02882         *
 * Si        5      0.02815              0.00271             -0.02660         *
 * Si        6      0.02834              0.00286             -0.02655         *
 * Si        7     -0.03874             -0.00202             -0.02877         *
 * Si        8     -0.03893             -0.00187             -0.02882         *
 *                                                                            *
 ******************************************************************************
  
 +------------+-------------+-------------+-----------------+ <-- min BFGS
 |    Step    |   lambda    |   F.delta   |    enthalpy     | <-- min BFGS
 +------------+-------------+-------------+-----------------+ <-- min BFGS
 |  previous  |    0.000000 |    0.000006 |   -16835.335489 | <-- min BFGS
 | trial step |    1.000000 |    0.000005 |   -16835.335634 | <-- min BFGS
 |  line step |    9.531093 |    0.000000 |   -16835.336213 | <-- min BFGS
 +------------+-------------+-------------+-----------------+ <-- min BFGS
  
 BFGS: finished iteration     2 with enthalpy= -1.68353362E+004 eV
  
 +-----------+-----------------+-----------------+------------+-----+ <-- BFGS
 | Parameter |      value      |    tolerance    |    units   | OK? | <-- BFGS
 +-----------+-----------------+-----------------+------------+-----+ <-- BFGS
 |  dE/ion   |   1.810257E-005 |   2.000000E-007 |         eV | No  | <-- BFGS
 |  |F|max   |   4.846744E-002 |   1.000000E-003 |       eV/A | No  | <-- BFGS
 |  |dR|max  |   2.738745E-003 |   1.000000E-003 |          A | No  | <-- BFGS
 +-----------+-----------------+-----------------+------------+-----+ <-- BFGS
  

================================================================================
 Starting BFGS iteration          3 ...
================================================================================
 
Writing model to jadeite_4_30_GPa_cij__1__1.check
  
 +------------+-------------+-------------+-----------------+ <-- min BFGS
 |    Step    |   lambda    |   F.delta   |    enthalpy     | <-- min BFGS
 +------------+-------------+-------------+-----------------+ <-- min BFGS
 |  previous  |    0.000000 |    0.000004 |   -16835.336213 | <-- min BFGS
 +------------+-------------+-------------+-----------------+ <-- min BFGS
  

--------------------------------------------------------------------------------
 BFGS: starting iteration         3 with trial guess (lambda=  1.000000)
--------------------------------------------------------------------------------
 
                           -------------------------------
                                     Cell Contents
                           -------------------------------
 
            xxxxxxxxxxxxxxxxxxxxxxxxxxxxxxxxxxxxxxxxxxxxxxxxxxxxxxxxxxxx
            x  Element    Atom        Fractional coordinates of atoms  x
            x            Number           u          v          w      x
            x----------------------------------------------------------x
            x  O            1         0.109504   0.076879   0.129217   x
            x  O            2         0.609505   0.576878   0.129219   x
            x  O            3         0.890482   0.076934   0.370716   x
            x  O            4         0.390481   0.576933   0.370714   x
            x  O            5         0.890496   0.923121   0.870783   x
            x  O            6         0.390495   0.423122   0.870781   x
            x  O            7         0.109518   0.923066   0.629284   x
            x  O            8         0.609519   0.423067   0.629286   x
            x  O            9         0.361047   0.263603   0.295051   x
            x  O           10         0.861047   0.763603   0.295050   x
            x  O           11         0.638846   0.263708   0.204494   x
            x  O           12         0.138846   0.763709   0.204495   x
            x  O           13         0.638953   0.736397   0.704949   x
            x  O           14         0.138953   0.236397   0.704950   x
            x  O           15         0.361154   0.736292   0.795506   x
            x  O           16         0.861154   0.236291   0.795505   x
            x  O           17         0.353579   0.008429   1.004739   x
            x  O           18         0.853582   0.508426   1.004748   x
            x  O           19         0.646172   0.008465   0.495004   x
            x  O           20         0.146170   0.508462   0.494995   x
            x  O           21         0.646421   0.991571  -0.004739   x
            x  O           22         0.146418   0.491574  -0.004748   x
            x  O           23         0.353828   0.991535   0.504996   x
            x  O           24         0.853830   0.491538   0.505005   x
            x  Na           1         0.000087   0.301328   0.249980   x
            x  Na           2         0.500087   0.801332   0.249980   x
            x  Na           3        -0.000087   0.698672   0.750020   x
            x  Na           4         0.499913   0.198668   0.750020   x
            x  Al           1         0.000115   0.906099   0.250090   x
            x  Al           2         0.500115   0.406099   0.250090   x
            x  Al           3        -0.000115   0.093901   0.749910   x
            x  Al           4         0.499885   0.593901   0.749910   x
            x  Si           1         0.290688   0.093823   0.227540   x
            x  Si           2         0.790689   0.593823   0.227545   x
            x  Si           3         0.709321   0.093876   0.271588   x
            x  Si           4         0.209320   0.593875   0.271582   x
            x  Si           5         0.709312   0.906177   0.772460   x
            x  Si           6         0.209311   0.406177   0.772455   x
            x  Si           7         0.290679   0.906124   0.728412   x
            x  Si           8         0.790680   0.406125   0.728418   x
            xxxxxxxxxxxxxxxxxxxxxxxxxxxxxxxxxxxxxxxxxxxxxxxxxxxxxxxxxxxx
 
 
------------------------------------------------------------------------ <-- SCF
SCF loop      Energy                           Energy gain       Timer   <-- SCF
                                               per atom          (sec)   <-- SCF
------------------------------------------------------------------------ <-- SCF
Initial  -1.68461467E+004                                        508.96  <-- SCF
      1  -1.68461472E+004                    1.24227485E-005     527.62  <-- SCF
      2  -1.68461472E+004                    5.72744710E-009     546.12  <-- SCF
      3  -1.68461472E+004                    4.22273160E-011     566.47  <-- SCF
------------------------------------------------------------------------ <-- SCF
 
Final energy =  -16846.14724312     eV
(energy not corrected for finite basis set)
 
 
 *********************************** Forces ***********************************
 *                                                                            *
 *                        Cartesian components (eV/A)                         *
 * -------------------------------------------------------------------------- *
 *                   x                    y                    z              *
 *                                                                            *
 * O         1     -0.01002             -0.00421             -0.00432         *
 * O         2     -0.00998             -0.00414             -0.00432         *
 * O         3      0.00848              0.00579              0.00342         *
 * O         4      0.00844              0.00586              0.00342         *
 * O         5      0.01002              0.00421              0.00432         *
 * O         6      0.00998              0.00414              0.00432         *
 * O         7     -0.00848             -0.00579             -0.00342         *
 * O         8     -0.00844             -0.00586             -0.00342         *
 * O         9      0.00876             -0.00674             -0.01709         *
 * O        10      0.00881             -0.00670             -0.01706         *
 * O        11     -0.01004             -0.00285             -0.01123         *
 * O        12     -0.01009             -0.00281             -0.01125         *
 * O        13     -0.00876              0.00674              0.01709         *
 * O        14     -0.00881              0.00670              0.01706         *
 * O        15      0.01004              0.00285              0.01123         *
 * O        16      0.01009              0.00281              0.01125         *
 * O        17      0.00273             -0.00394             -0.00166         *
 * O        18      0.00261             -0.00390             -0.00170         *
 * O        19      0.00949             -0.00285              0.00569         *
 * O        20      0.00961             -0.00282              0.00573         *
 * O        21     -0.00273              0.00394              0.00166         *
 * O        22     -0.00261              0.00390              0.00170         *
 * O        23     -0.00949              0.00285             -0.00569         *
 * O        24     -0.00961              0.00282             -0.00573         *
 * Na        1      0.01256              0.00695             -0.00078         *
 * Na        2      0.01256              0.00686             -0.00078         *
 * Na        3     -0.01256             -0.00695              0.00078         *
 * Na        4     -0.01256             -0.00686              0.00078         *
 * Al        1      0.00396              0.00176             -0.00014         *
 * Al        2      0.00396              0.00175             -0.00014         *
 * Al        3     -0.00396             -0.00176              0.00014         *
 * Al        4     -0.00396             -0.00175              0.00014         *
 * Si        1     -0.02335             -0.00265              0.02280         *
 * Si        2     -0.02348             -0.00275              0.02276         *
 * Si        3      0.03117              0.00275              0.02619         *
 * Si        4      0.03130              0.00266              0.02623         *
 * Si        5      0.02335              0.00265             -0.02280         *
 * Si        6      0.02348              0.00275             -0.02276         *
 * Si        7     -0.03117             -0.00275             -0.02619         *
 * Si        8     -0.03130             -0.00266             -0.02623         *
 *                                                                            *
 ******************************************************************************
  
 +------------+-------------+-------------+-----------------+ <-- min BFGS
 |    Step    |   lambda    |   F.delta   |    enthalpy     | <-- min BFGS
 +------------+-------------+-------------+-----------------+ <-- min BFGS
 |  previous  |    0.000000 |    0.000004 |   -16835.336213 | <-- min BFGS
 | trial step |    1.000000 |    0.000003 |   -16835.336309 | <-- min BFGS
 +------------+-------------+-------------+-----------------+ <-- min BFGS
  

--------------------------------------------------------------------------------
 BFGS: improving iteration         3 with line minimization (lambda=  6.305731)
--------------------------------------------------------------------------------
 
                           -------------------------------
                                     Cell Contents
                           -------------------------------
 
            xxxxxxxxxxxxxxxxxxxxxxxxxxxxxxxxxxxxxxxxxxxxxxxxxxxxxxxxxxxx
            x  Element    Atom        Fractional coordinates of atoms  x
            x            Number           u          v          w      x
            x----------------------------------------------------------x
            x  O            1         0.109519   0.076840   0.129161   x
            x  O            2         0.609520   0.576840   0.129163   x
            x  O            3         0.890460   0.076938   0.370728   x
            x  O            4         0.390459   0.576937   0.370727   x
            x  O            5         0.890481   0.923160   0.870839   x
            x  O            6         0.390480   0.423160   0.870837   x
            x  O            7         0.109540   0.923062   0.629272   x
            x  O            8         0.609541   0.423063   0.629273   x
            x  O            9         0.361074   0.263547   0.294872   x
            x  O           10         0.861073   0.763548   0.294872   x
            x  O           11         0.638783   0.263688   0.204379   x
            x  O           12         0.138783   0.763689   0.204379   x
            x  O           13         0.638926   0.736453   0.705128   x
            x  O           14         0.138927   0.236452   0.705128   x
            x  O           15         0.361217   0.736312   0.795621   x
            x  O           16         0.861217   0.236311   0.795621   x
            x  O           17         0.353453   0.008404   1.004634   x
            x  O           18         0.853455   0.508401   1.004642   x
            x  O           19         0.646272   0.008454   0.495068   x
            x  O           20         0.146271   0.508451   0.495059   x
            x  O           21         0.646547   0.991596  -0.004634   x
            x  O           22         0.146545   0.491599  -0.004642   x
            x  O           23         0.353728   0.991546   0.504932   x
            x  O           24         0.853729   0.491549   0.504941   x
            x  Na           1         0.000149   0.301380   0.249994   x
            x  Na           2         0.500149   0.801383   0.249994   x
            x  Na           3        -0.000149   0.698620   0.750006   x
            x  Na           4         0.499851   0.198617   0.750006   x
            x  Al           1         0.000164   0.906042   0.250127   x
            x  Al           2         0.500164   0.406043   0.250127   x
            x  Al           3        -0.000164   0.093958   0.749873   x
            x  Al           4         0.499836   0.593957   0.749873   x
            x  Si           1         0.290596   0.093808   0.227521   x
            x  Si           2         0.790597   0.593808   0.227526   x
            x  Si           3         0.709435   0.093899   0.271706   x
            x  Si           4         0.209434   0.593899   0.271702   x
            x  Si           5         0.709404   0.906192   0.772479   x
            x  Si           6         0.209403   0.406192   0.772474   x
            x  Si           7         0.290565   0.906101   0.728294   x
            x  Si           8         0.790566   0.406101   0.728298   x
            xxxxxxxxxxxxxxxxxxxxxxxxxxxxxxxxxxxxxxxxxxxxxxxxxxxxxxxxxxxx
 
 
------------------------------------------------------------------------ <-- SCF
SCF loop      Energy                           Energy gain       Timer   <-- SCF
                                               per atom          (sec)   <-- SCF
------------------------------------------------------------------------ <-- SCF
Initial  -1.68461352E+004                                        574.81  <-- SCF
      1  -1.68461475E+004                    3.05837354E-004     593.70  <-- SCF
      2  -1.68461475E+004                    1.37273502E-007     612.33  <-- SCF
      3  -1.68461475E+004                    1.01453834E-009     631.06  <-- SCF
      4  -1.68461475E+004                    2.11136580E-011     652.16  <-- SCF
------------------------------------------------------------------------ <-- SCF
 
Final energy =  -16846.14747593     eV
(energy not corrected for finite basis set)
 
 
 *********************************** Forces ***********************************
 *                                                                            *
 *                        Cartesian components (eV/A)                         *
 * -------------------------------------------------------------------------- *
 *                   x                    y                    z              *
 *                                                                            *
 * O         1     -0.03571             -0.00328              0.00319         *
 * O         2     -0.03581             -0.00326              0.00319         *
 * O         3      0.04290              0.00660              0.00607         *
 * O         4      0.04300              0.00662              0.00607         *
 * O         5      0.03571              0.00328             -0.00319         *
 * O         6      0.03581              0.00326             -0.00319         *
 * O         7     -0.04290             -0.00660             -0.00607         *
 * O         8     -0.04300             -0.00662             -0.00607         *
 * O         9      0.00741             -0.00372             -0.00758         *
 * O        10      0.00729             -0.00397             -0.00756         *
 * O        11      0.00207             -0.01091             -0.00591         *
 * O        12      0.00220             -0.01114             -0.00593         *
 * O        13     -0.00741              0.00372              0.00758         *
 * O        14     -0.00729              0.00397              0.00756         *
 * O        15     -0.00207              0.01091              0.00591         *
 * O        16     -0.00220              0.01114              0.00593         *
 * O        17      0.00677             -0.00398              0.00134         *
 * O        18      0.00664             -0.00397              0.00128         *
 * O        19      0.00341              0.00098              0.00260         *
 * O        20      0.00354              0.00099              0.00266         *
 * O        21     -0.00677              0.00398             -0.00134         *
 * O        22     -0.00664              0.00397             -0.00128         *
 * O        23     -0.00341             -0.00098             -0.00260         *
 * O        24     -0.00354             -0.00099             -0.00266         *
 * Na        1      0.01150              0.00838             -0.00243         *
 * Na        2      0.01150              0.00833             -0.00243         *
 * Na        3     -0.01150             -0.00838              0.00243         *
 * Na        4     -0.01150             -0.00833              0.00243         *
 * Al        1     -0.00296              0.00317             -0.00447         *
 * Al        2     -0.00296              0.00308             -0.00447         *
 * Al        3      0.00296             -0.00317              0.00447         *
 * Al        4      0.00296             -0.00308              0.00447         *
 * Si        1      0.00212             -0.00230              0.00266         *
 * Si        2      0.00232             -0.00210              0.00265         *
 * Si        3     -0.00904              0.00665              0.01251         *
 * Si        4     -0.00924              0.00685              0.01251         *
 * Si        5     -0.00212              0.00230             -0.00266         *
 * Si        6     -0.00232              0.00210             -0.00265         *
 * Si        7      0.00904             -0.00665             -0.01251         *
 * Si        8      0.00924             -0.00685             -0.01251         *
 *                                                                            *
 ******************************************************************************
  
 +------------+-------------+-------------+-----------------+ <-- min BFGS
 |    Step    |   lambda    |   F.delta   |    enthalpy     | <-- min BFGS
 +------------+-------------+-------------+-----------------+ <-- min BFGS
 |  previous  |    0.000000 |    0.000004 |   -16835.336213 | <-- min BFGS
 | trial step |    1.000000 |    0.000003 |   -16835.336309 | <-- min BFGS
 |  line step |    6.305731 |    0.000000 |   -16835.336542 | <-- min BFGS
 +------------+-------------+-------------+-----------------+ <-- min BFGS
  
 BFGS: finished iteration     3 with enthalpy= -1.68353365E+004 eV
  
 +-----------+-----------------+-----------------+------------+-----+ <-- BFGS
 | Parameter |      value      |    tolerance    |    units   | OK? | <-- BFGS
 +-----------+-----------------+-----------------+------------+-----+ <-- BFGS
 |  dE/ion   |   8.216159E-006 |   2.000000E-007 |         eV | No  | <-- BFGS
 |  |F|max   |   4.392730E-002 |   1.000000E-003 |       eV/A | No  | <-- BFGS
 |  |dR|max  |   1.398195E-003 |   1.000000E-003 |          A | No  | <-- BFGS
 +-----------+-----------------+-----------------+------------+-----+ <-- BFGS
  

================================================================================
 Starting BFGS iteration          4 ...
================================================================================
 
Writing model to jadeite_4_30_GPa_cij__1__1.check
  
 +------------+-------------+-------------+-----------------+ <-- min BFGS
[...]
            x  O           20         0.146536   0.508605   0.495439   x
            x  O           21         0.646718   0.991769  -0.004251   x
            x  O           22         0.146718   0.491769  -0.004252   x
            x  O           23         0.353464   0.991394   0.504560   x
            x  O           24         0.853464   0.491395   0.504561   x
            x  Na           1         0.000847   0.301797   0.249782   x
            x  Na           2         0.500847   0.801798   0.249782   x
            x  Na           3        -0.000847   0.698203   0.750218   x
            x  Na           4         0.499153   0.198202   0.750218   x
            x  Al           1         0.000137   0.906014   0.250067   x
            x  Al           2         0.500137   0.406014   0.250067   x
            x  Al           3        -0.000137   0.093986   0.749933   x
            x  Al           4         0.499863   0.593986   0.749933   x
            x  Si           1         0.290442   0.093665   0.227138   x
            x  Si           2         0.790442   0.593665   0.227139   x
            x  Si           3         0.709709   0.094122   0.272119   x
            x  Si           4         0.209709   0.594122   0.272119   x
            x  Si           5         0.709558   0.906335   0.772862   x
            x  Si           6         0.209558   0.406335   0.772861   x
            x  Si           7         0.290291   0.905878   0.727881   x
            x  Si           8         0.790291   0.405878   0.727881   x
            xxxxxxxxxxxxxxxxxxxxxxxxxxxxxxxxxxxxxxxxxxxxxxxxxxxxxxxxxxxx
 
 
 BFGS: Final Enthalpy     = -1.68353373E+004 eV
 BFGS: Final <frequency>  =     950.51497 cm-1
 
 ***************************** Symmetrised Forces *****************************
 *                                                                            *
 *                        Cartesian components (eV/A)                         *
 * -------------------------------------------------------------------------- *
 *                   x                    y                    z              *
 *                                                                            *
 * O         1      0.00002             -0.00078              0.00022         *
 * O         2     -0.00007             -0.00080              0.00022         *
 * O         3     -0.00033              0.00019              0.00041         *
 * O         4     -0.00024              0.00017              0.00042         *
 * O         5     -0.00002              0.00078             -0.00022         *
 * O         6      0.00007              0.00080             -0.00022         *
 * O         7      0.00033             -0.00019             -0.00041         *
 * O         8      0.00024             -0.00017             -0.00042         *
 * O         9      0.00013              0.00065              0.00003         *
 * O        10      0.00005              0.00051              0.00003         *
 * O        11      0.00038              0.00029             -0.00067         *
 * O        12      0.00046              0.00014             -0.00067         *
 * O        13     -0.00013             -0.00065             -0.00003         *
 * O        14     -0.00005             -0.00051             -0.00003         *
 * O        15     -0.00038             -0.00029              0.00067         *
 * O        16     -0.00046             -0.00014              0.00067         *
 * O        17     -0.00002              0.00017             -0.00047         *
 * O        18     -0.00004              0.00017             -0.00048         *
 * O        19      0.00014              0.00036             -0.00023         *
 * O        20      0.00016              0.00036             -0.00022         *
 * O        21      0.00002             -0.00017              0.00047         *
 * O        22      0.00004             -0.00017              0.00048         *
 * O        23     -0.00014             -0.00036              0.00023         *
 * O        24     -0.00016             -0.00036              0.00022         *
 * Na        1      0.00043             -0.00035             -0.00003         *
 * Na        2      0.00043             -0.00034             -0.00003         *
 * Na        3     -0.00043              0.00035              0.00003         *
 * Na        4     -0.00043              0.00034              0.00003         *
 * Al        1      0.00022              0.00051             -0.00042         *
 * Al        2      0.00022              0.00047             -0.00042         *
 * Al        3     -0.00022             -0.00051              0.00042         *
 * Al        4     -0.00022             -0.00047              0.00042         *
 * Si        1     -0.00052              0.00015              0.00034         *
 * Si        2     -0.00037              0.00031              0.00036         *
 * Si        3     -0.00035             -0.00001             -0.00030         *
 * Si        4     -0.00051              0.00015             -0.00031         *
 * Si        5      0.00052             -0.00015             -0.00034         *
 * Si        6      0.00037             -0.00031             -0.00036         *
 * Si        7      0.00035              0.00001              0.00030         *
 * Si        8      0.00051             -0.00015              0.00031         *
 *                                                                            *
 ******************************************************************************
 
 *********** Symmetrised Stress Tensor ***********
 *                                               *
 *          Cartesian components (GPa)           *
 * --------------------------------------------- *
 *             x             y             z     *
 *                                               *
 *  x     -3.071508      0.046481      0.019084  *
 *  y      0.046481     -3.729211      0.342400  *
 *  z      0.019084      0.342400     -3.809387  *
 *                                               *
 *  Pressure:    3.5367                          *
 *                                               *
 *************************************************
 
 Pseudo atomic calculation performed for O 2s2 2p4
 
 Converged in 36 iterations to a total energy of -429.6485 eV
 
 
 Pseudo atomic calculation performed for Na 2s2 2p6 3s1
 
 Converged in 33 iterations to a total energy of -1302.8467 eV
 
 
 Pseudo atomic calculation performed for Al 3s2 3p1
 
 Converged in 20 iterations to a total energy of -52.7392 eV
 
 
 Pseudo atomic calculation performed for Si 3s2 3p2
 
 Converged in 21 iterations to a total energy of -101.9044 eV
 
Charge spilling parameter for spin component 1 = 0.85%
 
     Atomic Populations (Mulliken)
     -----------------------------
Species   Ion     s      p      d      f     Total  Charge (e)
==============================================================
  O        1     1.85   5.24   0.00   0.00   7.08    -1.08
  O        2     1.85   5.24   0.00   0.00   7.08    -1.08
  O        3     1.85   5.24   0.00   0.00   7.08    -1.08
  O        4     1.85   5.24   0.00   0.00   7.08    -1.08
  O        5     1.85   5.24   0.00   0.00   7.08    -1.08
  O        6     1.85   5.24   0.00   0.00   7.08    -1.08
  O        7     1.85   5.24   0.00   0.00   7.08    -1.08
  O        8     1.85   5.24   0.00   0.00   7.08    -1.08
  O        9     1.84   5.29   0.00   0.00   7.12    -1.12
  O       10     1.84   5.29   0.00   0.00   7.12    -1.12
  O       11     1.84   5.29   0.00   0.00   7.12    -1.12
  O       12     1.84   5.29   0.00   0.00   7.12    -1.12
  O       13     1.84   5.29   0.00   0.00   7.12    -1.12
  O       14     1.84   5.29   0.00   0.00   7.12    -1.12
  O       15     1.84   5.29   0.00   0.00   7.12    -1.12
  O       16     1.84   5.29   0.00   0.00   7.12    -1.12
  O       17     1.83   5.30   0.00   0.00   7.12    -1.12
  O       18     1.83   5.30   0.00   0.00   7.12    -1.12
  O       19     1.83   5.30   0.00   0.00   7.12    -1.12
  O       20     1.83   5.30   0.00   0.00   7.12    -1.12
  O       21     1.83   5.30   0.00   0.00   7.12    -1.12
  O       22     1.83   5.30   0.00   0.00   7.12    -1.12
  O       23     1.83   5.30   0.00   0.00   7.12    -1.12
  O       24     1.83   5.30   0.00   0.00   7.12    -1.12
  Na       1     2.04   5.78   0.00   0.00   7.82     1.18
  Na       2     2.04   5.78   0.00   0.00   7.82     1.18
  Na       3     2.04   5.78   0.00   0.00   7.82     1.18
  Na       4     2.04   5.78   0.00   0.00   7.82     1.18
  Al       1     0.51   0.92   0.00   0.00   1.43     1.57
  Al       2     0.51   0.92   0.00   0.00   1.43     1.57
  Al       3     0.51   0.92   0.00   0.00   1.43     1.57
  Al       4     0.51   0.92   0.00   0.00   1.43     1.57
  Si       1     0.69   1.36   0.00   0.00   2.05     1.95
  Si       2     0.69   1.36   0.00   0.00   2.05     1.95
  Si       3     0.69   1.36   0.00   0.00   2.05     1.95
  Si       4     0.69   1.36   0.00   0.00   2.05     1.95
  Si       5     0.69   1.36   0.00   0.00   2.05     1.95
  Si       6     0.69   1.36   0.00   0.00   2.05     1.95
  Si       7     0.69   1.36   0.00   0.00   2.05     1.95
  Si       8     0.69   1.36   0.00   0.00   2.05     1.95
==============================================================
 
     Bond                     Population      Length (A)
============================================================
   O 011 --   Si 003               0.76        1.59316
   O 015 --   Si 007               0.76        1.59316
   O 016 --   Si 008               0.76        1.59317
   O 012 --   Si 004               0.76        1.59317
   O 013 --   Si 005               0.76        1.59376
   O 009 --   Si 001               0.76        1.59376
   O 014 --   Si 006               0.76        1.59377
   O 010 --   Si 002               0.76        1.59377
   O 024 --   Si 008               0.56        1.63097
   O 020 --   Si 004               0.56        1.63097
   O 023 --   Si 007               0.56        1.63097
   O 019 --   Si 003               0.56        1.63097
   O 022 --   Si 006               0.56        1.63166
   O 018 --   Si 002               0.56        1.63166
   O 017 --   Si 001               0.56        1.63166
   O 021 --   Si 005               0.56        1.63166
   O 008 --   Si 008               0.59        1.63891
   O 004 --   Si 004               0.59        1.63891
   O 003 --   Si 003               0.59        1.63891
   O 007 --   Si 007               0.59        1.63891
   O 006 --   Si 006               0.59        1.63917
   O 002 --   Si 002               0.59        1.63917
   O 001 --   Si 001               0.59        1.63917
   O 005 --   Si 005               0.59        1.63917
   O 024 --   Si 002               0.58        1.64105
   O 020 --   Si 006               0.58        1.64105
   O 023 --   Si 001               0.58        1.64105
   O 019 --   Si 005               0.58        1.64105
   O 018 --   Si 008               0.58        1.64242
   O 022 --   Si 004               0.58        1.64242
   O 021 --   Si 003               0.58        1.64242
   O 017 --   Si 007               0.58        1.64242
   O 014 --   Al 003               0.42        1.85681
   O 010 --   Al 001               0.42        1.85681
   O 013 --   Al 004               0.42        1.85682
   O 009 --   Al 002               0.42        1.85682
   O 012 --   Al 001               0.42        1.85764
   O 016 --   Al 003               0.42        1.85764
   O 015 --   Al 004               0.42        1.85764
   O 011 --   Al 002               0.42        1.85764
   O 007 --   Al 001               0.32        1.94347
   O 003 --   Al 003               0.32        1.94347
   O 008 --   Al 002               0.32        1.94347
   O 004 --   Al 004               0.32        1.94347
   O 005 --   Al 001               0.32        1.94410
   O 001 --   Al 003               0.32        1.94410
   O 002 --   Al 004               0.32        1.94410
   O 006 --   Al 002               0.32        1.94410
   O 002 --   Al 002               0.31        1.99543
   O 006 --   Al 004               0.31        1.99543
   O 005 --   Al 003               0.31        1.99543
   O 001 --   Al 001               0.31        1.99543
   O 004 --   Al 002               0.31        2.00347
   O 008 --   Al 004               0.31        2.00347
   O 007 --   Al 003               0.31        2.00347
   O 003 --   Al 001               0.31        2.00347
   O 005 --   Na 003              -0.01        2.35706
   O 001 --   Na 001              -0.01        2.35706
   O 002 --   Na 002              -0.01        2.35706
   O 006 --   Na 004              -0.01        2.35706
   O 003 --   Na 001              -0.01        2.35737
   O 007 --   Na 003              -0.01        2.35737
   O 008 --   Na 004              -0.01        2.35737
   O 004 --   Na 002              -0.01        2.35737
   O 018 --   Na 001              -0.04        2.37219
   O 022 --   Na 003              -0.04        2.37219
   O 017 --   Na 002              -0.04        2.37219
   O 021 --   Na 004              -0.04        2.37219
   O 020 --   Na 001              -0.04        2.37238
   O 024 --   Na 003              -0.04        2.37238
   O 019 --   Na 002              -0.04        2.37238
   O 023 --   Na 004              -0.04        2.37238
   O 010 --   Na 003              -0.06        2.40956
   O 014 --   Na 001              -0.06        2.40956
   O 009 --   Na 004              -0.06        2.40956
   O 013 --   Na 002              -0.06        2.40956
   O 016 --   Na 001              -0.05        2.41073
   O 012 --   Na 003              -0.05        2.41073
   O 015 --   Na 002              -0.05        2.41073
   O 011 --   Na 004              -0.05        2.41073
   O 003 --    O 007              -0.10        2.47944
   O 004 --    O 008              -0.10        2.47945
   O 001 --    O 005              -0.10        2.48080
   O 002 --    O 006              -0.10        2.48081
   O 013 --    O 019              -0.10        2.57975
   O 009 --    O 023              -0.10        2.57975
   O 010 --    O 024              -0.10        2.57975
   O 014 --    O 020              -0.10        2.57975
   O 011 --    O 021              -0.10        2.58470
   O 015 --    O 017              -0.10        2.58470
   O 016 --    O 018              -0.10        2.58470
   O 012 --    O 022              -0.10        2.58470
   O 020 --    O 022              -0.17        2.61340
   O 018 --    O 024              -0.17        2.61340
   O 019 --    O 021              -0.17        2.61340
   O 017 --    O 023              -0.17        2.61340
   O 001 --    O 023              -0.08        2.64271
   O 005 --    O 019              -0.08        2.64271
   O 006 --    O 020              -0.08        2.64271
   O 002 --    O 024              -0.08        2.64271
   O 008 --    O 024              -0.09        2.64299
   O 004 --    O 020              -0.09        2.64299
   O 007 --    O 023              -0.09        2.64299
   O 003 --    O 019              -0.09        2.64299
   O 006 --    O 022              -0.09        2.64355
   O 002 --    O 018              -0.09        2.64355
   O 001 --    O 017              -0.09        2.64356
   O 005 --    O 021              -0.09        2.64356
   O 003 --    O 021              -0.08        2.64412
   O 007 --    O 017              -0.08        2.64412
   O 008 --    O 018              -0.08        2.64412
   O 004 --    O 022              -0.08        2.64412
   O 015 --    O 023              -0.09        2.64428
   O 011 --    O 019              -0.09        2.64428
   O 016 --    O 024              -0.09        2.64428
   O 012 --    O 020              -0.09        2.64428
   O 013 --    O 021              -0.08        2.65107
   O 009 --    O 017              -0.08        2.65107
   O 014 --    O 022              -0.08        2.65107
   O 010 --    O 018              -0.08        2.65107
   O 001 --    O 014              -0.08        2.67984
   O 005 --    O 010              -0.08        2.67984
   O 006 --    O 009              -0.08        2.67985
   O 002 --    O 013              -0.08        2.67985
   O 007 --    O 012              -0.07        2.69122
   O 003 --    O 016              -0.07        2.69122
   O 004 --    O 015              -0.07        2.69123
   O 008 --    O 011              -0.07        2.69123
   O 001 --    O 012              -0.05        2.71023
   O 005 --    O 016              -0.05        2.71023
   O 006 --    O 015              -0.05        2.71023
   O 002 --    O 011              -0.05        2.71023
   O 021 --   Na 002              -0.02        2.71568
   O 017 --   Na 004              -0.02        2.71568
   O 022 --   Na 001              -0.02        2.71569
   O 018 --   Na 003              -0.02        2.71569
   O 007 --    O 014              -0.05        2.71957
   O 003 --    O 010              -0.05        2.71957
   O 008 --    O 013              -0.05        2.71957
   O 004 --    O 009              -0.05        2.71957
   O 005 --    O 007              -0.05        2.72357
   O 001 --    O 003              -0.05        2.72357
   O 002 --    O 004              -0.05        2.72357
   O 006 --    O 008              -0.05        2.72357
   O 019 --   Na 004              -0.02        2.73369
   O 023 --   Na 002              -0.02        2.73369
   O 020 --   Na 003              -0.02        2.73370
   O 024 --   Na 001              -0.02        2.73370
   O 005 --    O 013              -0.06        2.77920
   O 001 --    O 009              -0.06        2.77920
   O 006 --    O 014              -0.06        2.77920
   O 002 --    O 010              -0.06        2.77920
   O 003 --    O 011              -0.06        2.78055
   O 007 --    O 015              -0.06        2.78055
   O 008 --    O 016              -0.06        2.78055
   O 004 --    O 012              -0.06        2.78055
   O 020 --    O 024              -0.04        2.78733
   O 019 --    O 023              -0.04        2.78733
   O 018 --    O 022              -0.04        2.78978
   O 017 --    O 021              -0.04        2.78978
   O 010 --    O 012              -0.05        2.80137
   O 014 --    O 016              -0.05        2.80137
   O 013 --    O 015              -0.05        2.80137
   O 009 --    O 011              -0.05        2.80137
   O 005 --    O 012              -0.04        2.81658
   O 001 --    O 016              -0.04        2.81658
   O 002 --    O 015              -0.04        2.81658
   O 006 --    O 011              -0.04        2.81658
   O 007 --    O 010              -0.04        2.82288
   O 003 --    O 014              -0.04        2.82288
   O 004 --    O 013              -0.04        2.82288
   O 008 --    O 009              -0.04        2.82288
   O 014 --    O 017              -0.03        2.90694
   O 010 --    O 021              -0.03        2.90694
   O 009 --    O 022              -0.03        2.90694
   O 013 --    O 018              -0.03        2.90694
   O 012 --    O 023              -0.02        2.91147
   O 016 --    O 019              -0.02        2.91147
   O 011 --    O 024              -0.02        2.91148
   O 015 --    O 020              -0.02        2.91148
   O 004 --    O 006              -0.06        2.92853
   O 002 --    O 008              -0.06        2.92853
   O 001 --    O 007              -0.06        2.92853
   O 003 --    O 005              -0.06        2.92853
============================================================
 
 
Writing model to jadeite_4_30_GPa_cij__1__1.check
 
Writing analysis data to jadeite_4_30_GPa_cij__1__1.castep_bin
Initialisation time =      2.25 s
Calculation time    =   3145.13 s
Finalisation time   =      8.30 s
Total time          =   3155.68 s
Peak Memory Use     = 283312 kB
