 +-------------------------------------------------+
 |                                                 |
 |      CCC   AA    SSS  TTTTT  EEEEE  PPPP        |
 |     C     A  A  S       T    E      P   P       |
 |     C     AAAA   SS     T    EEE    PPPP        |
 |     C     A  A     S    T    E      P           |
 |      CCC  A  A  SSS     T    EEEEE  P           |
 |                                                 |
 +-------------------------------------------------+
 |                                                 |
 | Welcome to Academic Release CASTEP version 5.02 |
 | Ab Initio Total Energy Program                  |
 |                                                 |
 | Authors:                                        |
 | M. Segall, M. Probert, C. Pickard, P. Hasnip,   |
 | S. Clark, K. Refson, M. Payne                   |
 |                                                 |
 | Contributors:                                   |
 | P. Lindan, P. Haynes, J. White, V. Milman,      |
 | N. Govind, M. Gibson, P. Tulip, V. Cocula,      |
 | B. Montanari, D. Quigley, M. Glover,            |
 | L. Bernasconi, A. Perlov, M. Plummer            |
 |                                                 |
 | Copyright (c) 2000 - 2009                       |
 |                                                 |
 |     Distributed under the terms of an           |
 |     Agreement between the United Kingdom        |
 |     Car-Parrinello (UKCP) Consortium,           |
 |     Daresbury Laboratory and Accelrys, Inc.     |
 |                                                 |
 | Please cite                                     |
 |                                                 |
 |     "First principles methods using CASTEP"     |
 |                                                 |
 |         Zeitschrift fuer Kristallographie       |
 |           220(5-6) pp. 567-570 (2005)           |
 |                                                 |
 | S. J. Clark, M. D. Segall, C. J. Pickard,       |
 | P. J. Hasnip, M. J. Probert, K. Refson,         |
 | M. C. Payne                                     |
 |                                                 |
 |       in all publications arising from          |
 |              your use of CASTEP                 |
 |                                                 |
 +-------------------------------------------------+
 
 
 Pseudo atomic calculation performed for O 2s2 2p4
 
 Converged in 36 iterations to a total energy of -429.6485 eV
 
 
 Pseudo atomic calculation performed for Na 2s2 2p6 3s1
 
 Converged in 33 iterations to a total energy of -1302.8467 eV
 
 
 Pseudo atomic calculation performed for Al 3s2 3p1
 
 Converged in 20 iterations to a total energy of -52.7392 eV
 
 
 Pseudo atomic calculation performed for Si 3s2 3p2
 
 Converged in 21 iterations to a total energy of -101.9044 eV
 
Calculation parallelised over   36 nodes.
K-points are distributed over    6 groups, each containing    6 nodes.

 ************************************ Title ************************************
 

 ***************************** General Parameters ******************************
  
 output verbosity                               : normal  (1)
 write checkpoint data to                       : jadeite_4_30_GPa_cij__2__5.check
 type of calculation                            : geometry optimization
 stress calculation                             : on
 density difference calculation                 : off
 electron localisation func (ELF) calculation   : off
 Hirshfeld analysis                             : off
 unlimited duration calculation
 timing information                             : on
 memory usage estimate                          : on
 write final potential to formatted file        : off
 write final density to formatted file          : off
  
 output         length unit                     : A
 output           mass unit                     : amu
 output           time unit                     : ps
 output         charge unit                     : e
 output         energy unit                     : eV
 output          force unit                     : eV/A
 output       velocity unit                     : A/ps
 output       pressure unit                     : GPa
 output     inv_length unit                     : 1/A
 output      frequency unit                     : cm-1
 output force constant unit                     : eV/A**2
 output         volume unit                     : A**3
 output   IR intensity unit                     : (D/A)**2/amu
 output         dipole unit                     : D
 output         efield unit                     : eV/A/e
  
 wavefunctions paging                           : none
 data distribution                              : optimal for this architecture
 optimization strategy                          : maximize speed(+++)

 *********************** Exchange-Correlation Parameters ***********************
  
 using functional                               : Perdew Burke Ernzerhof
 Divergence correction                          : off
 DFT+D: Semi-empirical dispersion correction    : off

 ************************* Pseudopotential Parameters **************************
  
 pseudopotential representation                 : reciprocal space
 <beta|phi> representation                      : reciprocal space

 **************************** Basis Set Parameters *****************************
  
 plane wave basis set cut-off                   :   700.0000   eV
 finite basis set correction                    : none

 **************************** Electronic Parameters ****************************
  
 number of  electrons                           :  224.0    
 net charge of system                           :  0.000    
 net spin   of system                           :  0.000    
 number of  up  spins                           :  112.0    
 number of down spins                           :  112.0    
 treating system as non-spin-polarized
 number of bands                                :        112

 ********************* Electronic Minimization Parameters **********************
  
 Method: Treating system as non-metallic,
         and number of  SD  steps               :          1
         and number of  CG  steps               :          4
  
 total energy / atom convergence tol.           : 0.1000E-07   eV
 max force / atom convergence tol.              : ignored
 convergence tolerance window                   :          3   cycles
 max. number of SCF cycles                      :        100

 *********************** Population Analysis Parameters ************************
  
 Population analysis with cutoff                :  3.000       A

 ********************** Geometry Optimization Parameters ***********************
  
 optimization method                            : BFGS
 variable cell method                           : fixed basis quality
 max. number of steps                           :        300
 estimated bulk modulus                         :  500.0       GPa
 estimated <frequency>                          :  1668.       cm-1
 line minimiser tolerance                       :     0.4000
 total energy convergence tolerance             : 0.2000E-06   eV/atom
        max ionic |force| tolerance             : 0.1000E-02   eV/A
 max ionic |displacement| tolerance             : 0.1000E-02   A
   max |stress component| tolerance             : 0.1000E-02   GPa
 convergence tolerance window                   :          2   steps
 backup results every                           :          1   steps

 *******************************************************************************
  
 
                           -------------------------------
                                      Unit Cell
                           -------------------------------
        Real Lattice(A)                      Reciprocal Lattice(1/A)
   8.9813393   0.1000000  -2.8290832        0.6995822   0.0000000   0.0000000
   0.0000000   8.5603493   0.0000000       -0.0081724   0.7339870   0.0000000
   0.0000000   0.0000000   5.3199179        0.3720314   0.0000000   1.1810681
 
                       Lattice parameters(A)       Cell Angles
                    a =    9.416909          alpha =   90.000000
                    b =    8.560349          beta  =  107.483185
                    c =    5.319918          gamma =   89.391553
 
                       Current cell volume =  409.013383       A**3
 
                           -------------------------------
                                     Cell Contents
                           -------------------------------
                         Total number of ions in cell =   40
                      Total number of species in cell =    4
                        Max number of any one species =   24
 
            xxxxxxxxxxxxxxxxxxxxxxxxxxxxxxxxxxxxxxxxxxxxxxxxxxxxxxxxxxxx
            x  Element    Atom        Fractional coordinates of atoms  x
            x            Number           u          v          w      x
            x----------------------------------------------------------x
            x  O            1         0.109277   0.076953   0.129205   x
            x  O            2         0.609279   0.576952   0.129208   x
            x  O            3         0.890723   0.076953   0.370795   x
            x  O            4         0.390721   0.576952   0.370792   x
            x  O            5         0.890723   0.923047   0.870795   x
            x  O            6         0.390721   0.423048   0.870792   x
            x  O            7         0.109277   0.923047   0.629205   x
            x  O            8         0.609279   0.423048   0.629208   x
            x  O            9         0.361047   0.263746   0.295383   x
            x  O           10         0.861046   0.763747   0.295382   x
            x  O           11         0.638953   0.263746   0.204617   x
            x  O           12         0.138954   0.763747   0.204618   x
            x  O           13         0.638953   0.736254   0.704617   x
            x  O           14         0.138954   0.236253   0.704618   x
            x  O           15         0.361047   0.736254   0.795383   x
            x  O           16         0.861046   0.236253   0.795382   x
            x  O           17         0.354029   0.008469   1.005059   x
            x  O           18         0.854032   0.508466   1.005069   x
            x  O           19         0.645971   0.008469   0.494941   x
            x  O           20         0.145968   0.508466   0.494931   x
            x  O           21         0.645971   0.991530  -0.005059   x
            x  O           22         0.145968   0.491534  -0.005069   x
            x  O           23         0.354029   0.991530   0.505059   x
            x  O           24         0.854032   0.491534   0.505069   x
            x  Na           1         0.000000   0.301230   0.250000   x
            x  Na           2         0.500000   0.801235   0.250000   x
            x  Na           3         0.000000   0.698770   0.750000   x
            x  Na           4         0.500000   0.198765   0.750000   x
            x  Al           1         0.000000   0.906276   0.250000   x
            x  Al           2         0.500000   0.406277   0.250000   x
            x  Al           3         0.000000   0.093724   0.750000   x
            x  Al           4         0.500000   0.593723   0.750000   x
            x  Si           1         0.290869   0.093825   0.228100   x
            x  Si           2         0.790871   0.593824   0.228106   x
            x  Si           3         0.709131   0.093825   0.271900   x
            x  Si           4         0.209129   0.593824   0.271894   x
            x  Si           5         0.709131   0.906176   0.771900   x
            x  Si           6         0.209129   0.406176   0.771894   x
            x  Si           7         0.290869   0.906176   0.728100   x
            x  Si           8         0.790871   0.406176   0.728106   x
            xxxxxxxxxxxxxxxxxxxxxxxxxxxxxxxxxxxxxxxxxxxxxxxxxxxxxxxxxxxx
 
 
                         No user defined ionic velocities
 
                           -------------------------------
                                   Details of Species
                           -------------------------------
 
                               Mass of species in AMU
                                    O   15.9994000
                                    Na   22.9897700
                                    Al   26.9815400
                                    Si   28.0855000
 
                          Electric Quadrupole Moment (Barn)
                                    O   -0.0255800 Isotope 17
                                    Na    0.1040000 Isotope 23
                                    Al    0.1466000 Isotope 27
                                    Si    1.0000000 No Isotope Defined
 
                          Files used for pseudopotentials:
                                    O O_00PBE.usp
                                    Na Na_00PBE.usp
                                    Al Al_00PBE.usp
                                    Si Si_00PBE.usp
 
                           -------------------------------
                              k-Points For BZ Sampling
                           -------------------------------
                       MP grid size for SCF calculation is  2  2  3
                         Number of kpoints used = 6
 
             +++++++++++++++++++++++++++++++++++++++++++++++++++++++
             +  Number       Fractional coordinates        Weight  +
             +-----------------------------------------------------+
             +     1  -0.250000   0.250000   0.333333   0.1666667  +
             +     2  -0.250000   0.250000   0.000000   0.1666667  +
             +     3   0.250000  -0.250000   0.333333   0.1666667  +
             +     4  -0.250000  -0.250000   0.333333   0.1666667  +
             +     5   0.250000   0.250000   0.000000   0.1666667  +
             +     6   0.250000   0.250000   0.333333   0.1666667  +
             +++++++++++++++++++++++++++++++++++++++++++++++++++++++
 
                           -------------------------------
                               Symmetry and Constraints
                           -------------------------------
 
                      Number of symmetry operations   = 2
                      Number of ionic constraints     = 3
                      Maximum deviation from symmetry = 0.997129E-15     ANG
               Point group of crystal =     2: Ci, -1, -1
           Set iprint > 1 for details on symmetry rotations/translations
 
                          Centre of mass is constrained
             Set iprint > 1 for details of linear ionic constraints
 
                         Number of cell constraints= 6
                         Cell constraints are:  0 0 0 0 0 0
 
                         External pressure/stress (GPa)
                          4.30000   0.00000   0.00000
                                    4.30000   0.00000
                                              4.30000
  
+---------------- MEMORY AND SCRATCH DISK ESTIMATES PER NODE -----------------+
|                                                     Memory          Disk    |
| Model and support data                               96.0 MB         0.0 MB |
| Electronic energy minimisation requirements          33.3 MB         0.0 MB |
|                                               ----------------------------- |
| Approx. total storage required per node             129.3 MB         0.0 MB |
|                                                                             |
| Requirements will fluctuate during execution and may exceed these estimates |
+-----------------------------------------------------------------------------+
------------------------------------------------------------------------ <-- SCF
SCF loop      Energy                           Energy gain       Timer   <-- SCF
                                               per atom          (sec)   <-- SCF
------------------------------------------------------------------------ <-- SCF
Initial  -1.57486162E+003                                          6.77  <-- SCF
      1  -1.65686339E+004                    3.74844307E+002      26.94  <-- SCF
      2  -1.68202899E+004                    6.29140108E+000      46.32  <-- SCF
      3  -1.68453301E+004                    6.26003229E-001      65.69  <-- SCF
      4  -1.68461153E+004                    1.96318945E-002      84.79  <-- SCF
      5  -1.68461234E+004                    2.01611917E-004     104.01  <-- SCF
      6  -1.68461236E+004                    4.85648767E-006     123.21  <-- SCF
      7  -1.68461236E+004                    1.56993891E-007     142.44  <-- SCF
      8  -1.68461236E+004                    5.22613307E-009     161.64  <-- SCF
      9  -1.68461236E+004                    1.76488526E-010     182.33  <-- SCF
------------------------------------------------------------------------ <-- SCF
 
Final energy =  -16846.12360533     eV
(energy not corrected for finite basis set)
 
 
Writing model to jadeite_4_30_GPa_cij__2__5.check
 
+---------------- MEMORY AND SCRATCH DISK ESTIMATES PER NODE -----------------+
|                                                     Memory          Disk    |
| Model and support data                               89.2 MB         0.0 MB |
| Geometry minimisation requirements                   38.8 MB         0.0 MB |
|                                               ----------------------------- |
| Approx. total storage required per node             128.0 MB         0.0 MB |
|                                                                             |
| Requirements will fluctuate during execution and may exceed these estimates |
+-----------------------------------------------------------------------------+
 
 
 *********************************** Forces ***********************************
 *                                                                            *
 *                        Cartesian components (eV/A)                         *
 * -------------------------------------------------------------------------- *
 *                   x                    y                    z              *
 *                                                                            *
 * O         1     -0.07313             -0.00583             -0.09138         *
 * O         2     -0.07327             -0.00578             -0.09139         *
 * O         3      0.04673             -0.00948              0.04254         *
 * O         4      0.04688             -0.00944              0.04256         *
 * O         5      0.07313              0.00583              0.09138         *
 * O         6      0.07327              0.00578              0.09139         *
 * O         7     -0.04673              0.00948             -0.04254         *
 * O         8     -0.04688              0.00944             -0.04256         *
 * O         9      0.00957             -0.11978             -0.07919         *
 * O        10      0.00971             -0.11970             -0.07917         *
 * O        11     -0.10221              0.14588              0.05270         *
 * O        12     -0.10234              0.14596              0.05270         *
 * O        13     -0.00957              0.11978              0.07919         *
 * O        14     -0.00971              0.11970              0.07917         *
 * O        15      0.10221             -0.14588             -0.05270         *
 * O        16      0.10234             -0.14596             -0.05270         *
 * O        17     -0.25459             -0.13674             -0.09022         *
 * O        18     -0.25465             -0.13667             -0.09030         *
 * O        19      0.25016              0.04151             -0.12337         *
 * O        20      0.25022              0.04158             -0.12330         *
 * O        21      0.25459              0.13674              0.09022         *
 * O        22      0.25465              0.13667              0.09030         *
 * O        23     -0.25016             -0.04151              0.12337         *
 * O        24     -0.25022             -0.04158              0.12330         *
 * Na        1      0.01888             -0.00316              0.02602         *
 * Na        2      0.01889             -0.00328              0.02601         *
 * Na        3     -0.01888              0.00316             -0.02602         *
 * Na        4     -0.01889              0.00328             -0.02601         *
 * Al        1     -0.07514              0.02486              0.00002         *
 * Al        2     -0.07514              0.02497              0.00002         *
 * Al        3      0.07514             -0.02486             -0.00002         *
 * Al        4      0.07514             -0.02497             -0.00002         *
 * Si        1      0.23470             -0.19822             -0.00486         *
 * Si        2      0.23451             -0.19820             -0.00488         *
 * Si        3     -0.26705             -0.66219             -0.00735         *
 * Si        4     -0.26686             -0.66218             -0.00737         *
 * Si        5     -0.23470              0.19822              0.00486         *
 * Si        6     -0.23451              0.19820              0.00488         *
 * Si        7      0.26705              0.66219              0.00735         *
 * Si        8      0.26686              0.66218              0.00737         *
 *                                                                            *
 ******************************************************************************
 BFGS: finished iteration     0 with enthalpy= -1.68351463E+004 eV
  
 +-----------+-----------------+-----------------+------------+-----+ <-- BFGS
 | Parameter |      value      |    tolerance    |    units   | OK? | <-- BFGS
 +-----------+-----------------+-----------------+------------+-----+ <-- BFGS
 |  dE/ion   |   0.000000E+000 |   2.000000E-007 |         eV | No  | <-- BFGS
 |  |F|max   |   7.140545E-001 |   1.000000E-003 |       eV/A | No  | <-- BFGS
 |  |dR|max  |   0.000000E+000 |   1.000000E-003 |          A | No  | <-- BFGS
 +-----------+-----------------+-----------------+------------+-----+ <-- BFGS
  

================================================================================
 Starting BFGS iteration          1 ...
================================================================================
 
Writing model to jadeite_4_30_GPa_cij__2__5.check
  
 +------------+-------------+-------------+-----------------+ <-- min BFGS
 |    Step    |   lambda    |   F.delta   |    enthalpy     | <-- min BFGS
 +------------+-------------+-------------+-----------------+ <-- min BFGS
 |  previous  |    0.000000 |    0.000608 |   -16835.146303 | <-- min BFGS
 +------------+-------------+-------------+-----------------+ <-- min BFGS
  

--------------------------------------------------------------------------------
 BFGS: starting iteration         1 with trial guess (lambda=  1.000000)
--------------------------------------------------------------------------------
 
                           -------------------------------
                                     Cell Contents
                           -------------------------------
 
            xxxxxxxxxxxxxxxxxxxxxxxxxxxxxxxxxxxxxxxxxxxxxxxxxxxxxxxxxxxx
            x  Element    Atom        Fractional coordinates of atoms  x
            x            Number           u          v          w      x
            x----------------------------------------------------------x
            x  O            1         0.109238   0.076950   0.129101   x
            x  O            2         0.609240   0.576949   0.129104   x
            x  O            3         0.890748   0.076947   0.370847   x
            x  O            4         0.390746   0.576946   0.370844   x
            x  O            5         0.890762   0.923050   0.870899   x
            x  O            6         0.390760   0.423051   0.870896   x
            x  O            7         0.109252   0.923053   0.629153   x
            x  O            8         0.609254   0.423054   0.629156   x
            x  O            9         0.361052   0.263679   0.295314   x
            x  O           10         0.861051   0.763679   0.295313   x
            x  O           11         0.638898   0.263830   0.204636   x
            x  O           12         0.138899   0.763830   0.204637   x
            x  O           13         0.638948   0.736321   0.704686   x
            x  O           14         0.138949   0.236321   0.704687   x
            x  O           15         0.361102   0.736170   0.795364   x
            x  O           16         0.861101   0.236170   0.795363   x
            x  O           17         0.353892   0.008394   1.004904   x
            x  O           18         0.853895   0.508390   1.004914   x
            x  O           19         0.646106   0.008491   0.494900   x
            x  O           20         0.146103   0.508488   0.494891   x
            x  O           21         0.646108   0.991606  -0.004904   x
            x  O           22         0.146105   0.491610  -0.004914   x
            x  O           23         0.353894   0.991509   0.505100   x
            x  O           24         0.853897   0.491512   0.505109   x
            x  Na           1         0.000010   0.301228   0.250029   x
            x  Na           2         0.500010   0.801233   0.250029   x
            x  Na           3        -0.000010   0.698772   0.749971   x
            x  Na           4         0.499990   0.198767   0.749971   x
            x  Al           1        -0.000040   0.906291   0.249979   x
            x  Al           2         0.499960   0.406291   0.249979   x
            x  Al           3         0.000040   0.093709   0.750021   x
            x  Al           4         0.500040   0.593709   0.750021   x
            x  Si           1         0.290995   0.093711   0.228163   x
            x  Si           2         0.790997   0.593710   0.228169   x
            x  Si           3         0.708987   0.093452   0.271817   x
            x  Si           4         0.208985   0.593451   0.271811   x
            x  Si           5         0.709005   0.906289   0.771837   x
            x  Si           6         0.209003   0.406290   0.771831   x
            x  Si           7         0.291013   0.906548   0.728183   x
            x  Si           8         0.791015   0.406549   0.728189   x
            xxxxxxxxxxxxxxxxxxxxxxxxxxxxxxxxxxxxxxxxxxxxxxxxxxxxxxxxxxxx
 
 
------------------------------------------------------------------------ <-- SCF
SCF loop      Energy                           Energy gain       Timer   <-- SCF
                                               per atom          (sec)   <-- SCF
------------------------------------------------------------------------ <-- SCF
Initial  -1.68461163E+004                                        193.33  <-- SCF
      1  -1.68461379E+004                    5.39356782E-004     212.45  <-- SCF
      2  -1.68461379E+004                    3.08653219E-007     231.58  <-- SCF
      3  -1.68461379E+004                    4.04407757E-009     250.70  <-- SCF
      4  -1.68461379E+004                    8.18250922E-011     271.50  <-- SCF
------------------------------------------------------------------------ <-- SCF
 
Final energy =  -16846.13789654     eV
(energy not corrected for finite basis set)
 
 
 *********************************** Forces ***********************************
 *                                                                            *
 *                        Cartesian components (eV/A)                         *
 * -------------------------------------------------------------------------- *
 *                   x                    y                    z              *
 *                                                                            *
 * O         1     -0.02383             -0.00058             -0.08647         *
 * O         2     -0.02397             -0.00054             -0.08648         *
 * O         3      0.01224             -0.01922              0.03620         *
 * O         4      0.01239             -0.01918              0.03622         *
 * O         5      0.02383              0.00058              0.08647         *
 * O         6      0.02397              0.00054              0.08648         *
 * O         7     -0.01224              0.01922             -0.03620         *
 * O         8     -0.01239              0.01918             -0.03622         *
 * O         9      0.00704             -0.12961             -0.07332         *
 * O        10      0.00715             -0.12957             -0.07330         *
 * O        11     -0.06561              0.04193              0.05534         *
 * O        12     -0.06571              0.04196              0.05533         *
 * O        13     -0.00704              0.12961              0.07332         *
 * O        14     -0.00715              0.12957              0.07330         *
 * O        15      0.06561             -0.04193             -0.05534         *
 * O        16      0.06571             -0.04196             -0.05533         *
 * O        17     -0.21029             -0.10493             -0.05218         *
 * O        18     -0.21036             -0.10487             -0.05225         *
 * O        19      0.20417              0.01115             -0.08001         *
 * O        20      0.20424              0.01121             -0.07995         *
 * O        21      0.21029              0.10493              0.05218         *
 * O        22      0.21036              0.10487              0.05225         *
 * O        23     -0.20417             -0.01115              0.08001         *
 * O        24     -0.20424             -0.01121              0.07995         *
 * Na        1      0.01344             -0.01803              0.02414         *
 * Na        2      0.01345             -0.01815              0.02414         *
 * Na        3     -0.01344              0.01803             -0.02414         *
 * Na        4     -0.01345              0.01815             -0.02414         *
 * Al        1     -0.06316              0.02730             -0.00123         *
 * Al        2     -0.06316              0.02739             -0.00123         *
 * Al        3      0.06316             -0.02730              0.00123         *
 * Al        4      0.06316             -0.02739              0.00123         *
 * Si        1      0.15674             -0.16648             -0.00352         *
 * Si        2      0.15659             -0.16644             -0.00354         *
 * Si        3     -0.20699             -0.46389             -0.01550         *
 * Si        4     -0.20683             -0.46385             -0.01551         *
 * Si        5     -0.15674              0.16648              0.00352         *
 * Si        6     -0.15659              0.16644              0.00354         *
 * Si        7      0.20699              0.46389              0.01550         *
 * Si        8      0.20683              0.46385              0.01551         *
 *                                                                            *
 ******************************************************************************
  
 +------------+-------------+-------------+-----------------+ <-- min BFGS
 |    Step    |   lambda    |   F.delta   |    enthalpy     | <-- min BFGS
 +------------+-------------+-------------+-----------------+ <-- min BFGS
 |  previous  |    0.000000 |    0.000608 |   -16835.146303 | <-- min BFGS
 | trial step |    1.000000 |    0.000442 |   -16835.160595 | <-- min BFGS
 +------------+-------------+-------------+-----------------+ <-- min BFGS
  

--------------------------------------------------------------------------------
 BFGS: improving iteration         1 with line minimization (lambda=  3.657505)
--------------------------------------------------------------------------------
 
                           -------------------------------
                                     Cell Contents
                           -------------------------------
 
            xxxxxxxxxxxxxxxxxxxxxxxxxxxxxxxxxxxxxxxxxxxxxxxxxxxxxxxxxxxx
            x  Element    Atom        Fractional coordinates of atoms  x
            x            Number           u          v          w      x
            x----------------------------------------------------------x
            x  O            1         0.109133   0.076943   0.128825   x
            x  O            2         0.609135   0.576941   0.128827   x
            x  O            3         0.890815   0.076932   0.370985   x
            x  O            4         0.390813   0.576931   0.370983   x
            x  O            5         0.890867   0.923057   0.871175   x
            x  O            6         0.390865   0.423059   0.871173   x
            x  O            7         0.109185   0.923068   0.629015   x
            x  O            8         0.609187   0.423069   0.629017   x
            x  O            9         0.361066   0.263499   0.295130   x
            x  O           10         0.861065   0.763499   0.295129   x
            x  O           11         0.638752   0.264050   0.204685   x
            x  O           12         0.138752   0.764051   0.204686   x
            x  O           13         0.638934   0.736501   0.704870   x
            x  O           14         0.138935   0.236501   0.704871   x
            x  O           15         0.361248   0.735950   0.795315   x
            x  O           16         0.861248   0.235949   0.795314   x
            x  O           17         0.353528   0.008193   1.004492   x
            x  O           18         0.853530   0.508189   1.004502   x
            x  O           19         0.646464   0.008550   0.494793   x
            x  O           20         0.146461   0.508546   0.494783   x
            x  O           21         0.646472   0.991807  -0.004492   x
            x  O           22         0.146470   0.491811  -0.004502   x
            x  O           23         0.353536   0.991450   0.505207   x
            x  O           24         0.853539   0.491454   0.505217   x
            x  Na           1         0.000037   0.301223   0.250106   x
            x  Na           2         0.500037   0.801227   0.250106   x
            x  Na           3        -0.000037   0.698777   0.749894   x
            x  Na           4         0.499963   0.198773   0.749894   x
            x  Al           1        -0.000148   0.906330   0.249921   x
            x  Al           2         0.499852   0.406330   0.249921   x
            x  Al           3         0.000148   0.093670   0.750079   x
            x  Al           4         0.500148   0.593670   0.750079   x
            x  Si           1         0.291331   0.093410   0.228330   x
            x  Si           2         0.791333   0.593409   0.228335   x
            x  Si           3         0.708605   0.092462   0.271596   x
            x  Si           4         0.208603   0.592461   0.271590   x
            x  Si           5         0.708669   0.906590   0.771670   x
            x  Si           6         0.208667   0.406591   0.771665   x
            x  Si           7         0.291395   0.907538   0.728404   x
            x  Si           8         0.791397   0.407539   0.728410   x
            xxxxxxxxxxxxxxxxxxxxxxxxxxxxxxxxxxxxxxxxxxxxxxxxxxxxxxxxxxxx
 
 
------------------------------------------------------------------------ <-- SCF
SCF loop      Energy                           Energy gain       Timer   <-- SCF
                                               per atom          (sec)   <-- SCF
------------------------------------------------------------------------ <-- SCF
Initial  -1.68460062E+004                                        280.15  <-- SCF
      1  -1.68461538E+004                    3.68958987E-003     299.46  <-- SCF
      2  -1.68461539E+004                    2.21399589E-006     318.63  <-- SCF
      3  -1.68461539E+004                    2.92709546E-008     337.87  <-- SCF
      4  -1.68461539E+004                    5.89480958E-010     357.05  <-- SCF
      5  -1.68461539E+004                    1.35343962E-011     377.84  <-- SCF
------------------------------------------------------------------------ <-- SCF
 
Final energy =  -16846.15391017     eV
(energy not corrected for finite basis set)
 
 
 *********************************** Forces ***********************************
 *                                                                            *
 *                        Cartesian components (eV/A)                         *
 * -------------------------------------------------------------------------- *
 *                   x                    y                    z              *
 *                                                                            *
 * O         1      0.10591              0.01305             -0.07328         *
 * O         2      0.10576              0.01310             -0.07329         *
 * O         3     -0.07896             -0.04556              0.01932         *
 * O         4     -0.07881             -0.04552              0.01933         *
 * O         5     -0.10591             -0.01305              0.07328         *
 * O         6     -0.10576             -0.01310              0.07329         *
 * O         7      0.07896              0.04556             -0.01932         *
 * O         8      0.07881              0.04552             -0.01933         *
 * O         9      0.00038             -0.15590             -0.05770         *
 * O        10      0.00042             -0.15596             -0.05768         *
 * O        11      0.02678             -0.22620              0.06109         *
 * O        12      0.02675             -0.22628              0.06107         *
 * O        13     -0.00038              0.15590              0.05770         *
 * O        14     -0.00042              0.15596              0.05768         *
 * O        15     -0.02678              0.22620             -0.06109         *
 * O        16     -0.02675              0.22628             -0.06107         *
 * O        17     -0.09130             -0.01773              0.05425         *
 * O        18     -0.09140             -0.01767              0.05419         *
 * O        19      0.08113             -0.07100              0.03950         *
 * O        20      0.08123             -0.07095              0.03955         *
 * O        21      0.09130              0.01773             -0.05425         *
 * O        22      0.09140              0.01767             -0.05419         *
 * O        23     -0.08113              0.07100             -0.03950         *
 * O        24     -0.08123              0.07095             -0.03955         *
 * Na        1     -0.00106             -0.05770              0.01916         *
 * Na        2     -0.00105             -0.05780              0.01916         *
 * Na        3      0.00106              0.05770             -0.01916         *
 * Na        4      0.00105              0.05780             -0.01916         *
 * Al        1     -0.03132              0.03402             -0.00442         *
 * Al        2     -0.03132              0.03406             -0.00442         *
 * Al        3      0.03132             -0.03402              0.00442         *
 * Al        4      0.03132             -0.03406              0.00442         *
 * Si        1     -0.04901             -0.08159              0.00028         *
 * Si        2     -0.04904             -0.08148              0.00027         *
 * Si        3     -0.03954              0.05762             -0.03484         *
 * Si        4     -0.03948              0.05773             -0.03482         *
 * Si        5      0.04901              0.08159             -0.00028         *
 * Si        6      0.04904              0.08148             -0.00027         *
 * Si        7      0.03954             -0.05762              0.03484         *
 * Si        8      0.03948             -0.05773              0.03482         *
 *                                                                            *
 ******************************************************************************
  
 +------------+-------------+-------------+-----------------+ <-- min BFGS
 |    Step    |   lambda    |   F.delta   |    enthalpy     | <-- min BFGS
 +------------+-------------+-------------+-----------------+ <-- min BFGS
 |  previous  |    0.000000 |    0.000608 |   -16835.146303 | <-- min BFGS
 | trial step |    1.000000 |    0.000442 |   -16835.160595 | <-- min BFGS
 |  line step |    3.657505 |    0.000001 |   -16835.176608 | <-- min BFGS
 +------------+-------------+-------------+-----------------+ <-- min BFGS
  
 BFGS: finished iteration     1 with enthalpy= -1.68351766E+004 eV
  
 +-----------+-----------------+-----------------+------------+-----+ <-- BFGS
 | Parameter |      value      |    tolerance    |    units   | OK? | <-- BFGS
 +-----------+-----------------+-----------------+------------+-----+ <-- BFGS
 |  dE/ion   |   7.576211E-004 |   2.000000E-007 |         eV | No  | <-- BFGS
 |  |F|max   |   2.358952E-001 |   1.000000E-003 |       eV/A | No  | <-- BFGS
 |  |dR|max  |   1.263073E-002 |   1.000000E-003 |          A | No  | <-- BFGS
 +-----------+-----------------+-----------------+------------+-----+ <-- BFGS
  

================================================================================
 Starting BFGS iteration          2 ...
================================================================================
 
Writing model to jadeite_4_30_GPa_cij__2__5.check
  
 +------------+-------------+-------------+-----------------+ <-- min BFGS
 |    Step    |   lambda    |   F.delta   |    enthalpy     | <-- min BFGS
 +------------+-------------+-------------+-----------------+ <-- min BFGS
 |  previous  |    0.000000 |    0.000110 |   -16835.176608 | <-- min BFGS
 +------------+-------------+-------------+-----------------+ <-- min BFGS
  

--------------------------------------------------------------------------------
 BFGS: starting iteration         2 with trial guess (lambda=  1.000000)
--------------------------------------------------------------------------------
 
                           -------------------------------
                                     Cell Contents
                           -------------------------------
 
            xxxxxxxxxxxxxxxxxxxxxxxxxxxxxxxxxxxxxxxxxxxxxxxxxxxxxxxxxxxx
            x  Element    Atom        Fractional coordinates of atoms  x
            x            Number           u          v          w      x
            x----------------------------------------------------------x
            x  O            1         0.109183   0.076949   0.128769   x
            x  O            2         0.609184   0.576947   0.128772   x
            x  O            3         0.890777   0.076906   0.370990   x
            x  O            4         0.390776   0.576905   0.370987   x
            x  O            5         0.890817   0.923051   0.871231   x
            x  O            6         0.390816   0.423053   0.871228   x
            x  O            7         0.109223   0.923094   0.629010   x
            x  O            8         0.609224   0.423095   0.629013   x
            x  O            9         0.361067   0.263398   0.295064   x
            x  O           10         0.861066   0.763399   0.295064   x
            x  O           11         0.638756   0.263938   0.204752   x
            x  O           12         0.138757   0.763938   0.204753   x
            x  O           13         0.638933   0.736602   0.704936   x
            x  O           14         0.138934   0.236601   0.704936   x
            x  O           15         0.361244   0.736062   0.795248   x
            x  O           16         0.861243   0.236062   0.795247   x
            x  O           17         0.353453   0.008169   1.004487   x
            x  O           18         0.853456   0.508166   1.004496   x
            x  O           19         0.646533   0.008513   0.494845   x
            x  O           20         0.146530   0.508510   0.494835   x
            x  O           21         0.646547   0.991831  -0.004487   x
            x  O           22         0.146544   0.491834  -0.004496   x
            x  O           23         0.353467   0.991487   0.505155   x
            x  O           24         0.853470   0.491490   0.505165   x
            x  Na           1         0.000039   0.301190   0.250129   x
            x  Na           2         0.500039   0.801194   0.250129   x
            x  Na           3        -0.000039   0.698810   0.749871   x
            x  Na           4         0.499961   0.198806   0.749871   x
            x  Al           1        -0.000172   0.906352   0.249904   x
            x  Al           2         0.499828   0.406352   0.249904   x
            x  Al           3         0.000172   0.093648   0.750096   x
            x  Al           4         0.500172   0.593648   0.750096   x
            x  Si           1         0.291328   0.093343   0.228328   x
            x  Si           2         0.791330   0.593342   0.228333   x
            x  Si           3         0.708557   0.092426   0.271537   x
            x  Si           4         0.208555   0.592425   0.271532   x
            x  Si           5         0.708672   0.906657   0.771672   x
            x  Si           6         0.208670   0.406658   0.771667   x
            x  Si           7         0.291443   0.907574   0.728463   x
            x  Si           8         0.791445   0.407575   0.728468   x
            xxxxxxxxxxxxxxxxxxxxxxxxxxxxxxxxxxxxxxxxxxxxxxxxxxxxxxxxxxxx
 
 
------------------------------------------------------------------------ <-- SCF
SCF loop      Energy                           Energy gain       Timer   <-- SCF
                                               per atom          (sec)   <-- SCF
------------------------------------------------------------------------ <-- SCF
Initial  -1.68461473E+004                                        387.66  <-- SCF
      1  -1.68461567E+004                    2.35686338E-004     406.77  <-- SCF
      2  -1.68461567E+004                    9.30349752E-008     425.88  <-- SCF
      3  -1.68461567E+004                    8.11986430E-010     444.98  <-- SCF
      4  -1.68461567E+004                    1.76333847E-011     465.62  <-- SCF
------------------------------------------------------------------------ <-- SCF
 
Final energy =  -16846.15671085     eV
(energy not corrected for finite basis set)
 
 
 *********************************** Forces ***********************************
 *                                                                            *
 *                        Cartesian components (eV/A)                         *
 * -------------------------------------------------------------------------- *
 *                   x                    y                    z              *
 *                                                                            *
 * O         1      0.08398              0.00612             -0.06957         *
 * O         2      0.08385              0.00617             -0.06958         *
 * O         3     -0.07180             -0.04701              0.01867         *
 * O         4     -0.07168             -0.04696              0.01868         *
 * O         5     -0.08398             -0.00612              0.06957         *
 * O         6     -0.08385             -0.00617              0.06958         *
 * O         7      0.07180              0.04701             -0.01867         *
 * O         8      0.07168              0.04696             -0.01868         *
 * O         9      0.00834             -0.13984             -0.05595         *
 * O        10      0.00838             -0.13989             -0.05593         *
 * O        11      0.01023             -0.19450              0.05876         *
 * O        12      0.01020             -0.19456              0.05874         *
 * O        13     -0.00834              0.13984              0.05595         *
 * O        14     -0.00838              0.13989              0.05593         *
 * O        15     -0.01023              0.19450             -0.05876         *
 * O        16     -0.01020              0.19456             -0.05874         *
 * O        17     -0.07588             -0.01804              0.05135         *
 * O        18     -0.07598             -0.01798              0.05129         *
 * O        19      0.07006             -0.06396              0.03076         *
 * O        20      0.07017             -0.06391              0.03081         *
 * O        21      0.07588              0.01804             -0.05135         *
 * O        22      0.07598              0.01798             -0.05129         *
 * O        23     -0.07006              0.06396             -0.03076         *
 * O        24     -0.07017              0.06391             -0.03081         *
 * Na        1     -0.00070             -0.05815              0.01974         *
 * Na        2     -0.00070             -0.05825              0.01974         *
 * Na        3      0.00070              0.05815             -0.01974         *
 * Na        4      0.00070              0.05825             -0.01974         *
 * Al        1     -0.02928              0.02478             -0.00216         *
 * Al        2     -0.02927              0.02481             -0.00216         *
 * Al        3      0.02928             -0.02478              0.00216         *
 * Al        4      0.02927             -0.02481              0.00216         *
 * Si        1     -0.04803             -0.06654             -0.00073         *
 * Si        2     -0.04808             -0.06646             -0.00075         *
 * Si        3     -0.01970              0.04973             -0.02414         *
 * Si        4     -0.01963              0.04981             -0.02411         *
 * Si        5      0.04803              0.06654              0.00073         *
 * Si        6      0.04808              0.06646              0.00075         *
 * Si        7      0.01970             -0.04973              0.02414         *
 * Si        8      0.01963             -0.04981              0.02411         *
 *                                                                            *
 ******************************************************************************
  
 +------------+-------------+-------------+-----------------+ <-- min BFGS
 |    Step    |   lambda    |   F.delta   |    enthalpy     | <-- min BFGS
 +------------+-------------+-------------+-----------------+ <-- min BFGS
 |  previous  |    0.000000 |    0.000110 |   -16835.176608 | <-- min BFGS
 | trial step |    1.000000 |    0.000096 |   -16835.179409 | <-- min BFGS
 +------------+-------------+-------------+-----------------+ <-- min BFGS
  

--------------------------------------------------------------------------------
 BFGS: improving iteration         2 with line minimization (lambda=  7.532047)
--------------------------------------------------------------------------------
 
                           -------------------------------
                                     Cell Contents
                           -------------------------------
 
            xxxxxxxxxxxxxxxxxxxxxxxxxxxxxxxxxxxxxxxxxxxxxxxxxxxxxxxxxxxx
            x  Element    Atom        Fractional coordinates of atoms  x
            x            Number           u          v          w      x
            x----------------------------------------------------------x
            x  O            1         0.109508   0.076989   0.128405   x
            x  O            2         0.609509   0.576988   0.128407   x
            x  O            3         0.890529   0.076734   0.371020   x
            x  O            4         0.390528   0.576733   0.371018   x
            x  O            5         0.890492   0.923011   0.871595   x
            x  O            6         0.390491   0.423012   0.871593   x
            x  O            7         0.109471   0.923266   0.628980   x
            x  O            8         0.609472   0.423267   0.628982   x
            x  O            9         0.361075   0.262739   0.294638   x
            x  O           10         0.861074   0.762740   0.294637   x
            x  O           11         0.638783   0.263201   0.205188   x
            x  O           12         0.138784   0.763201   0.205189   x
            x  O           13         0.638925   0.737261   0.705362   x
            x  O           14         0.138926   0.237260   0.705363   x
            x  O           15         0.361217   0.736799   0.794812   x
            x  O           16         0.861216   0.236799   0.794811   x
            x  O           17         0.352965   0.008016   1.004450   x
            x  O           18         0.852967   0.508013   1.004459   x
            x  O           19         0.646982   0.008274   0.495182   x
            x  O           20         0.146980   0.508271   0.495173   x
            x  O           21         0.647035   0.991984  -0.004450   x
            x  O           22         0.147033   0.491987  -0.004459   x
            x  O           23         0.353018   0.991726   0.504818   x
            x  O           24         0.853020   0.491729   0.504827   x
            x  Na           1         0.000047   0.300974   0.250276   x
            x  Na           2         0.500047   0.800978   0.250276   x
            x  Na           3        -0.000047   0.699026   0.749724   x
            x  Na           4         0.499953   0.199022   0.749724   x
            x  Al           1        -0.000332   0.906496   0.249793   x
            x  Al           2         0.499668   0.406497   0.249793   x
            x  Al           3         0.000332   0.093504   0.750207   x
            x  Al           4         0.500332   0.593503   0.750207   x
            x  Si           1         0.291309   0.092905   0.228314   x
            x  Si           2         0.791311   0.592905   0.228319   x
            x  Si           3         0.708243   0.092188   0.271155   x
            x  Si           4         0.208242   0.592188   0.271149   x
            x  Si           5         0.708691   0.907095   0.771686   x
            x  Si           6         0.208689   0.407095   0.771681   x
            x  Si           7         0.291757   0.907812   0.728845   x
            x  Si           8         0.791758   0.407812   0.728851   x
            xxxxxxxxxxxxxxxxxxxxxxxxxxxxxxxxxxxxxxxxxxxxxxxxxxxxxxxxxxxx
 
 
------------------------------------------------------------------------ <-- SCF
SCF loop      Energy                           Energy gain       Timer   <-- SCF
                                               per atom          (sec)   <-- SCF
------------------------------------------------------------------------ <-- SCF
Initial  -1.68458648E+004                                        474.16  <-- SCF
      1  -1.68461651E+004                    7.50694356E-003     493.43  <-- SCF
      2  -1.68461652E+004                    2.95719503E-006     512.44  <-- SCF
      3  -1.68461652E+004                    2.56848036E-008     531.58  <-- SCF
      4  -1.68461652E+004                    5.42071901E-010     550.71  <-- SCF
      5  -1.68461652E+004                    1.50038449E-011     570.73  <-- SCF
------------------------------------------------------------------------ <-- SCF
 
Final energy =  -16846.16517038     eV
(energy not corrected for finite basis set)
 
 
 *********************************** Forces ***********************************
 *                                                                            *
 *                        Cartesian components (eV/A)                         *
 * -------------------------------------------------------------------------- *
 *                   x                    y                    z              *
 *                                                                            *
 * O         1     -0.06038             -0.03883             -0.04554         *
 * O         2     -0.06035             -0.03876             -0.04554         *
 * O         3     -0.02483             -0.05650              0.01448         *
 * O         4     -0.02484             -0.05643              0.01448         *
 * O         5      0.06038              0.03883              0.04554         *
 * O         6      0.06035              0.03876              0.04554         *
 * O         7      0.02483              0.05650             -0.01448         *
 * O         8      0.02484              0.05643             -0.01448         *
 * O         9      0.06053             -0.03446             -0.04464         *
 * O        10      0.06059             -0.03442             -0.04461         *
 * O        11     -0.09843              0.01479              0.04324         *
 * O        12     -0.09849              0.01483              0.04321         *
 * O        13     -0.06053              0.03446              0.04464         *
 * O        14     -0.06059              0.03442              0.04461         *
 * O        15      0.09843             -0.01479             -0.04324         *
 * O        16      0.09849             -0.01483             -0.04321         *
 * O        17      0.02495             -0.01999              0.03255         *
 * O        18      0.02484             -0.01994              0.03250         *
 * O        19     -0.00224             -0.01712             -0.02799         *
 * O        20     -0.00212             -0.01707             -0.02795         *
 * O        21     -0.02495              0.01999             -0.03255         *
 * O        22     -0.02484              0.01994             -0.03250         *
 * O        23      0.00224              0.01712              0.02799         *
 * O        24      0.00212              0.01707              0.02795         *
 * Na        1      0.00168             -0.06116              0.02357         *
 * Na        2      0.00168             -0.06125              0.02356         *
 * Na        3     -0.00168              0.06116             -0.02357         *
 * Na        4     -0.00168              0.06125             -0.02356         *
 * Al        1     -0.01645             -0.03511              0.01298         *
 * Al        2     -0.01645             -0.03510              0.01297         *
 * Al        3      0.01645              0.03511             -0.01298         *
 * Al        4      0.01645              0.03510             -0.01297         *
 * Si        1     -0.04151              0.03271             -0.00766         *
 * Si        2     -0.04164              0.03263             -0.00770         *
 * Si        3      0.11155             -0.00418              0.04730         *
 * Si        4      0.11169             -0.00427              0.04735         *
 * Si        5      0.04151             -0.03271              0.00766         *
 * Si        6      0.04164             -0.03263              0.00770         *
 * Si        7     -0.11155              0.00418             -0.04730         *
 * Si        8     -0.11169              0.00427             -0.04735         *
 *                                                                            *
 ******************************************************************************
  
 +------------+-------------+-------------+-----------------+ <-- min BFGS
 |    Step    |   lambda    |   F.delta   |    enthalpy     | <-- min BFGS
 +------------+-------------+-------------+-----------------+ <-- min BFGS
 |  previous  |    0.000000 |    0.000110 |   -16835.176608 | <-- min BFGS
 | trial step |    1.000000 |    0.000096 |   -16835.179409 | <-- min BFGS
 |  line step |    7.532047 |   -0.000001 |   -16835.187868 | <-- min BFGS
 +------------+-------------+-------------+-----------------+ <-- min BFGS
  
 BFGS: finished iteration     2 with enthalpy= -1.68351879E+004 eV
  
 +-----------+-----------------+-----------------+------------+-----+ <-- BFGS
 | Parameter |      value      |    tolerance    |    units   | OK? | <-- BFGS
 +-----------+-----------------+-----------------+------------+-----+ <-- BFGS
 |  dE/ion   |   2.815053E-004 |   2.000000E-007 |         eV | No  | <-- BFGS
 |  |F|max   |   1.213850E-001 |   1.000000E-003 |       eV/A | No  | <-- BFGS
 |  |dR|max  |   7.719966E-003 |   1.000000E-003 |          A | No  | <-- BFGS
 +-----------+-----------------+-----------------+------------+-----+ <-- BFGS
  

================================================================================
 Starting BFGS iteration          3 ...
================================================================================
 
Writing model to jadeite_4_30_GPa_cij__2__5.check
  
 +------------+-------------+-------------+-----------------+ <-- min BFGS
 |    Step    |   lambda    |   F.delta   |    enthalpy     | <-- min BFGS
 +------------+-------------+-------------+-----------------+ <-- min BFGS
 |  previous  |    0.000000 |    0.000040 |   -16835.187868 | <-- min BFGS
 +------------+-------------+-------------+-----------------+ <-- min BFGS
  

--------------------------------------------------------------------------------
 BFGS: starting iteration         3 with trial guess (lambda=  1.000000)
--------------------------------------------------------------------------------
 
                           -------------------------------
                                     Cell Contents
                           -------------------------------
 
            xxxxxxxxxxxxxxxxxxxxxxxxxxxxxxxxxxxxxxxxxxxxxxxxxxxxxxxxxxxx
            x  Element    Atom        Fractional coordinates of atoms  x
            x            Number           u          v          w      x
            x----------------------------------------------------------x
            x  O            1         0.109493   0.076970   0.128334   x
            x  O            2         0.609494   0.576969   0.128336   x
            x  O            3         0.890503   0.076694   0.371025   x
            x  O            4         0.390502   0.576693   0.371023   x
            x  O            5         0.890507   0.923030   0.871666   x
            x  O            6         0.390506   0.423031   0.871664   x
            x  O            7         0.109497   0.923306   0.628975   x
            x  O            8         0.609498   0.423307   0.628977   x
            x  O            9         0.361107   0.262691   0.294597   x
            x  O           10         0.861107   0.762692   0.294597   x
            x  O           11         0.638734   0.263171   0.205219   x
            x  O           12         0.138735   0.763172   0.205220   x
            x  O           13         0.638893   0.737309   0.705403   x
            x  O           14         0.138893   0.237308   0.705403   x
            x  O           15         0.361266   0.736829   0.794781   x
            x  O           16         0.861265   0.236828   0.794780   x
            x  O           17         0.352961   0.008000   1.004492   x
            x  O           18         0.852963   0.507997   1.004501   x
            x  O           19         0.646996   0.008252   0.495174   x
            x  O           20         0.146994   0.508249   0.495165   x
            x  O           21         0.647039   0.992000  -0.004492   x
            x  O           22         0.147037   0.492003  -0.004501   x
            x  O           23         0.353004   0.991748   0.504826   x
            x  O           24         0.853006   0.491751   0.504835   x
            x  Na           1         0.000048   0.300930   0.250304   x
            x  Na           2         0.500048   0.800934   0.250304   x
            x  Na           3        -0.000048   0.699070   0.749696   x
            x  Na           4         0.499952   0.199066   0.749696   x
            x  Al           1        -0.000347   0.906483   0.249796   x
            x  Al           2         0.499653   0.406484   0.249796   x
            x  Al           3         0.000347   0.093517   0.750204   x
            x  Al           4         0.500347   0.593516   0.750204   x
            x  Si           1         0.291280   0.092908   0.228291   x
            x  Si           2         0.791282   0.592907   0.228297   x
            x  Si           3         0.708294   0.092190   0.271215   x
            x  Si           4         0.208293   0.592190   0.271209   x
            x  Si           5         0.708720   0.907092   0.771709   x
            x  Si           6         0.208718   0.407093   0.771703   x
            x  Si           7         0.291706   0.907810   0.728785   x
            x  Si           8         0.791707   0.407810   0.728791   x
            xxxxxxxxxxxxxxxxxxxxxxxxxxxxxxxxxxxxxxxxxxxxxxxxxxxxxxxxxxxx
 
 
------------------------------------------------------------------------ <-- SCF
SCF loop      Energy                           Energy gain       Timer   <-- SCF
                                               per atom          (sec)   <-- SCF
------------------------------------------------------------------------ <-- SCF
Initial  -1.68461626E+004                                        580.54  <-- SCF
      1  -1.68461662E+004                    9.04759774E-005     599.79  <-- SCF
      2  -1.68461662E+004                    3.67958468E-008     618.90  <-- SCF
      3  -1.68461662E+004                    2.67362329E-010     638.85  <-- SCF
      4  -1.68461662E+004                    5.64577669E-012     662.01  <-- SCF
------------------------------------------------------------------------ <-- SCF
 
Final energy =  -16846.16619988     eV
(energy not corrected for finite basis set)
 
 
 *********************************** Forces ***********************************
 *                                                                            *
 *                        Cartesian components (eV/A)                         *
 * -------------------------------------------------------------------------- *
 *                   x                    y                    z              *
 *                                                                            *
 * O         1     -0.06163             -0.03727             -0.04088         *
 * O         2     -0.06163             -0.03721             -0.04088         *
 * O         3     -0.00692             -0.05509              0.01435         *
 * O         4     -0.00691             -0.05503              0.01435         *
 * O         5      0.06163              0.03727              0.04088         *
 * O         6      0.06163              0.03721              0.04088         *
 * O         7      0.00692              0.05509             -0.01435         *
 * O         8      0.00691              0.05503             -0.01435         *
 * O         9      0.05923             -0.02518             -0.04083         *
 * O        10      0.05927             -0.02517             -0.04080         *
 * O        11     -0.09177              0.01471              0.04255         *
 * O        12     -0.09181              0.01473              0.04252         *
 * O        13     -0.05923              0.02518              0.04083         *
 * O        14     -0.05927              0.02517              0.04080         *
 * O        15      0.09177             -0.01471             -0.04255         *
 * O        16      0.09181             -0.01473             -0.04252         *
 * O        17      0.02053             -0.02562              0.02357         *
 * O        18      0.02042             -0.02558              0.02352         *
 * O        19      0.00053             -0.01766             -0.02711         *
 * O        20      0.00064             -0.01762             -0.02707         *
 * O        21     -0.02053              0.02562             -0.02357         *
 * O        22     -0.02042              0.02558             -0.02352         *
 * O        23     -0.00053              0.01766              0.02711         *
 * O        24     -0.00064              0.01762              0.02707         *
 * Na        1      0.00131             -0.05771              0.02244         *
 * Na        2      0.00131             -0.05780              0.02243         *
 * Na        3     -0.00131              0.05771             -0.02244         *
 * Na        4     -0.00131              0.05780             -0.02243         *
 * Al        1     -0.01583             -0.03669              0.00995         *
 * Al        2     -0.01583             -0.03669              0.00995         *
 * Al        3      0.01583              0.03669             -0.00995         *
 * Al        4      0.01583              0.03669             -0.00995         *
 * Si        1     -0.03478              0.02447             -0.00894         *
 * Si        2     -0.03488              0.02442             -0.00898         *
 * Si        3      0.08379             -0.00847              0.03896         *
 * Si        4      0.08389             -0.00853              0.03901         *
 * Si        5      0.03478             -0.02447              0.00894         *
 * Si        6      0.03488             -0.02442              0.00898         *
 * Si        7     -0.08379              0.00847             -0.03896         *
 * Si        8     -0.08389              0.00853             -0.03901         *
 *                                                                            *
 ******************************************************************************
  
 +------------+-------------+-------------+-----------------+ <-- min BFGS
 |    Step    |   lambda    |   F.delta   |    enthalpy     | <-- min BFGS
 +------------+-------------+-------------+-----------------+ <-- min BFGS
 |  previous  |    0.000000 |    0.000040 |   -16835.187868 | <-- min BFGS
 | trial step |    1.000000 |    0.000035 |   -16835.188898 | <-- min BFGS
 +------------+-------------+-------------+-----------------+ <-- min BFGS
  

--------------------------------------------------------------------------------
 BFGS: improving iteration         3 with line minimization (lambda=  8.209030)
--------------------------------------------------------------------------------
 
                           -------------------------------
                                     Cell Contents
                           -------------------------------
 
            xxxxxxxxxxxxxxxxxxxxxxxxxxxxxxxxxxxxxxxxxxxxxxxxxxxxxxxxxxxx
            x  Element    Atom        Fractional coordinates of atoms  x
            x            Number           u          v          w      x
            x----------------------------------------------------------x
            x  O            1         0.109385   0.076830   0.127821   x
            x  O            2         0.609386   0.576829   0.127823   x
            x  O            3         0.890314   0.076409   0.371062   x
            x  O            4         0.390313   0.576408   0.371060   x
            x  O            5         0.890615   0.923170   0.872179   x
            x  O            6         0.390614   0.423171   0.872177   x
            x  O            7         0.109686   0.923591   0.628938   x
            x  O            8         0.609687   0.423592   0.628940   x
            x  O            9         0.361342   0.262344   0.294306   x
            x  O           10         0.861342   0.762344   0.294306   x
            x  O           11         0.638382   0.262955   0.205443   x
            x  O           12         0.138382   0.762956   0.205444   x
            x  O           13         0.638658   0.737656   0.705694   x
            x  O           14         0.138658   0.237656   0.705694   x
            x  O           15         0.361618   0.737045   0.794557   x
            x  O           16         0.861618   0.237044   0.794556   x
            x  O           17         0.352933   0.007889   1.004792   x
            x  O           18         0.852935   0.507887   1.004800   x
            x  O           19         0.647099   0.008093   0.495117   x
            x  O           20         0.147098   0.508090   0.495108   x
            x  O           21         0.647067   0.992111  -0.004792   x
            x  O           22         0.147065   0.492113  -0.004800   x
            x  O           23         0.352901   0.991907   0.504883   x
            x  O           24         0.852902   0.491910   0.504892   x
            x  Na           1         0.000054   0.300608   0.250502   x
            x  Na           2         0.500054   0.800612   0.250502   x
            x  Na           3        -0.000054   0.699392   0.749498   x
            x  Na           4         0.499946   0.199388   0.749498   x
            x  Al           1        -0.000452   0.906387   0.249815   x
            x  Al           2         0.499548   0.406387   0.249815   x
            x  Al           3         0.000452   0.093613   0.750185   x
            x  Al           4         0.500452   0.593613   0.750185   x
            x  Si           1         0.291073   0.092928   0.228131   x
            x  Si           2         0.791074   0.592927   0.228136   x
            x  Si           3         0.708663   0.092206   0.271647   x
            x  Si           4         0.208662   0.592205   0.271642   x
            x  Si           5         0.708927   0.907072   0.771869   x
            x  Si           6         0.208926   0.407073   0.771864   x
            x  Si           7         0.291337   0.907794   0.728353   x
            x  Si           8         0.791338   0.407795   0.728358   x
            xxxxxxxxxxxxxxxxxxxxxxxxxxxxxxxxxxxxxxxxxxxxxxxxxxxxxxxxxxxx
 
 
------------------------------------------------------------------------ <-- SCF
SCF loop      Energy                           Energy gain       Timer   <-- SCF
                                               per atom          (sec)   <-- SCF
------------------------------------------------------------------------ <-- SCF
Initial  -1.68460270E+004                                        670.62  <-- SCF
      1  -1.68461696E+004                    3.56413535E-003     689.76  <-- SCF
      2  -1.68461697E+004                    1.42516998E-006     708.88  <-- SCF
      3  -1.68461697E+004                    9.86680682E-009     727.92  <-- SCF
      4  -1.68461697E+004                    2.17014375E-010     747.75  <-- SCF
      5  -1.68461697E+004                    5.87779491E-012     768.42  <-- SCF
------------------------------------------------------------------------ <-- SCF
 
Final energy =  -16846.16966531     eV
(energy not corrected for finite basis set)
 
 
 *********************************** Forces ***********************************
 *                                                                            *
 *                        Cartesian components (eV/A)                         *
 * -------------------------------------------------------------------------- *
 *                   x                    y                    z              *
 *                                                                            *
 * O         1     -0.07052             -0.02605             -0.00718         *
 * O         2     -0.07065             -0.02604             -0.00719         *
 * O         3      0.12418             -0.04536              0.01343         *
 * O         4      0.12431             -0.04535              0.01343         *
 * O         5      0.07052              0.02605              0.00718         *
 * O         6      0.07065              0.02604              0.00719         *
 * O         7     -0.12418              0.04536             -0.01343         *
 * O         8     -0.12431              0.04535             -0.01343         *
 * O         9      0.04993              0.04164             -0.01344         *
 * O        10      0.04984              0.04145             -0.01342         *
 * O        11     -0.04354              0.01379              0.03760         *
 * O        12     -0.04345              0.01359              0.03758         *
 * O        13     -0.04993             -0.04164              0.01344         *
 * O        14     -0.04984             -0.04145              0.01342         *
 * O        15      0.04354             -0.01379             -0.03760         *
 * O        16      0.04345             -0.01359             -0.03758         *
 * O        17     -0.01128             -0.06602             -0.04077         *
 * O        18     -0.01139             -0.06600             -0.04084         *
 * O        19      0.02054             -0.02160             -0.02091         *
 * O        20      0.02065             -0.02158             -0.02084         *
 * O        21      0.01128              0.06602              0.04077         *
 * O        22      0.01139              0.06600              0.04084         *
 * O        23     -0.02054              0.02160              0.02091         *
 * O        24     -0.02065              0.02158              0.02084         *
 * Na        1     -0.00132             -0.03305              0.01438         *
 * Na        2     -0.00131             -0.03310              0.01438         *
 * Na        3      0.00132              0.03305             -0.01438         *
 * Na        4      0.00131              0.03310             -0.01438         *
 * Al        1     -0.01131             -0.04805             -0.01173         *
 * Al        2     -0.01131             -0.04811             -0.01173         *
 * Al        3      0.01131              0.04805              0.01173         *
 * Al        4      0.01131              0.04811              0.01173         *
 * Si        1      0.01359             -0.03477             -0.01792         *
 * Si        2      0.01374             -0.03458             -0.01793         *
 * Si        3     -0.11782             -0.03834             -0.02007         *
 * Si        4     -0.11798             -0.03814             -0.02010         *
 * Si        5     -0.01359              0.03477              0.01792         *
 * Si        6     -0.01374              0.03458              0.01793         *
 * Si        7      0.11782              0.03834              0.02007         *
 * Si        8      0.11798              0.03814              0.02010         *
 *                                                                            *
 ******************************************************************************
  
 +------------+-------------+-------------+-----------------+ <-- min BFGS
 |    Step    |   lambda    |   F.delta   |    enthalpy     | <-- min BFGS
 +------------+-------------+-------------+-----------------+ <-- min BFGS
 |  previous  |    0.000000 |    0.000040 |   -16835.187868 | <-- min BFGS
 | trial step |    1.000000 |    0.000035 |   -16835.188898 | <-- min BFGS
 |  line step |    8.209030 |    0.000000 |   -16835.192363 | <-- min BFGS
 +------------+-------------+-------------+-----------------+ <-- min BFGS
  
 BFGS: finished iteration     3 with enthalpy= -1.68351924E+004 eV
  
 +-----------+-----------------+-----------------+------------+-----+ <-- BFGS
 | Parameter |      value      |    tolerance    |    units   | OK? | <-- BFGS
 +-----------+-----------------+-----------------+------------+-----+ <-- BFGS
 |  dE/ion   |   1.123733E-004 |   2.000000E-007 |         eV | No  | <-- BFGS
 |  |F|max   |   1.329977E-001 |   1.000000E-003 |       eV/A | No  | <-- BFGS
 |  |dR|max  |   4.884571E-003 |   1.000000E-003 |          A | No  | <-- BFGS
[...]
            x  O           20         0.147201   0.506234   0.493500   x
            x  O           21         0.647013   0.994144  -0.006630   x
            x  O           22         0.147013   0.494144  -0.006630   x
            x  O           23         0.352798   0.993766   0.506500   x
            x  O           24         0.852799   0.493766   0.506500   x
            x  Na           1        -0.000406   0.298953   0.251790   x
            x  Na           2         0.499594   0.798953   0.251790   x
            x  Na           3         0.000406   0.701047   0.748210   x
            x  Na           4         0.500406   0.201047   0.748210   x
            x  Al           1        -0.000626   0.906226   0.249652   x
            x  Al           2         0.499374   0.406226   0.249652   x
            x  Al           3         0.000626   0.093774   0.750348   x
            x  Al           4         0.500626   0.593774   0.750348   x
            x  Si           1         0.290886   0.092778   0.227896   x
            x  Si           2         0.790886   0.592778   0.227896   x
            x  Si           3         0.708446   0.091958   0.271476   x
            x  Si           4         0.208446   0.591958   0.271476   x
            x  Si           5         0.709114   0.907222   0.772104   x
            x  Si           6         0.209114   0.407222   0.772104   x
            x  Si           7         0.291554   0.908042   0.728524   x
            x  Si           8         0.791554   0.408042   0.728524   x
            xxxxxxxxxxxxxxxxxxxxxxxxxxxxxxxxxxxxxxxxxxxxxxxxxxxxxxxxxxxx
 
 
 BFGS: Final Enthalpy     = -1.68351995E+004 eV
 BFGS: Final <frequency>  =     988.35172 cm-1
 
 ***************************** Symmetrised Forces *****************************
 *                                                                            *
 *                        Cartesian components (eV/A)                         *
 * -------------------------------------------------------------------------- *
 *                   x                    y                    z              *
 *                                                                            *
 * O         1     -0.00024             -0.00035             -0.00009         *
 * O         2     -0.00022             -0.00035             -0.00009         *
 * O         3     -0.00066             -0.00028             -0.00038         *
 * O         4     -0.00068             -0.00028             -0.00038         *
 * O         5      0.00024              0.00035              0.00009         *
 * O         6      0.00022              0.00035              0.00009         *
 * O         7      0.00066              0.00028              0.00038         *
 * O         8      0.00068              0.00028              0.00038         *
 * O         9     -0.00015             -0.00035              0.00030         *
 * O        10     -0.00013             -0.00032              0.00030         *
 * O        11     -0.00012              0.00017              0.00002         *
 * O        12     -0.00013              0.00019              0.00002         *
 * O        13      0.00015              0.00035             -0.00030         *
 * O        14      0.00013              0.00032             -0.00030         *
 * O        15      0.00012             -0.00017             -0.00002         *
 * O        16      0.00013             -0.00019             -0.00002         *
 * O        17      0.00031              0.00011              0.00026         *
 * O        18      0.00031              0.00012              0.00026         *
 * O        19     -0.00006             -0.00023              0.00024         *
 * O        20     -0.00006             -0.00023              0.00024         *
 * O        21     -0.00031             -0.00011             -0.00026         *
 * O        22     -0.00031             -0.00012             -0.00026         *
 * O        23      0.00006              0.00023             -0.00024         *
 * O        24      0.00006              0.00023             -0.00024         *
 * Na        1      0.00006             -0.00008             -0.00008         *
 * Na        2      0.00006             -0.00009             -0.00008         *
 * Na        3     -0.00006              0.00008              0.00008         *
 * Na        4     -0.00006              0.00009              0.00008         *
 * Al        1     -0.00009             -0.00033             -0.00060         *
 * Al        2     -0.00009             -0.00033             -0.00060         *
 * Al        3      0.00009              0.00033              0.00060         *
 * Al        4      0.00009              0.00033              0.00060         *
 * Si        1      0.00006             -0.00012              0.00022         *
 * Si        2      0.00003             -0.00015              0.00022         *
 * Si        3     -0.00063             -0.00001             -0.00007         *
 * Si        4     -0.00060             -0.00004             -0.00007         *
 * Si        5     -0.00006              0.00012             -0.00022         *
 * Si        6     -0.00003              0.00015             -0.00022         *
 * Si        7      0.00063              0.00001              0.00007         *
 * Si        8      0.00060              0.00004              0.00007         *
 *                                                                            *
 ******************************************************************************
 
 *********** Symmetrised Stress Tensor ***********
 *                                               *
 *          Cartesian components (GPa)           *
 * --------------------------------------------- *
 *             x             y             z     *
 *                                               *
 *  x     -2.857267      0.966039      0.888192  *
 *  y      0.966039     -2.541882      0.123945  *
 *  z      0.888192      0.123945      1.100117  *
 *                                               *
 *  Pressure:    1.4330                          *
 *                                               *
 *************************************************
 
 Pseudo atomic calculation performed for O 2s2 2p4
 
 Converged in 36 iterations to a total energy of -429.6485 eV
 
 
 Pseudo atomic calculation performed for Na 2s2 2p6 3s1
 
 Converged in 33 iterations to a total energy of -1302.8467 eV
 
 
 Pseudo atomic calculation performed for Al 3s2 3p1
 
 Converged in 20 iterations to a total energy of -52.7392 eV
 
 
 Pseudo atomic calculation performed for Si 3s2 3p2
 
 Converged in 21 iterations to a total energy of -101.9044 eV
 
Charge spilling parameter for spin component 1 = 0.85%
 
     Atomic Populations (Mulliken)
     -----------------------------
Species   Ion     s      p      d      f     Total  Charge (e)
==============================================================
  O        1     1.85   5.23   0.00   0.00   7.08    -1.08
  O        2     1.85   5.23   0.00   0.00   7.08    -1.08
  O        3     1.85   5.23   0.00   0.00   7.08    -1.08
  O        4     1.85   5.23   0.00   0.00   7.08    -1.08
  O        5     1.85   5.23   0.00   0.00   7.08    -1.08
  O        6     1.85   5.23   0.00   0.00   7.08    -1.08
  O        7     1.85   5.23   0.00   0.00   7.08    -1.08
  O        8     1.85   5.23   0.00   0.00   7.08    -1.08
  O        9     1.84   5.29   0.00   0.00   7.12    -1.12
  O       10     1.84   5.29   0.00   0.00   7.12    -1.12
  O       11     1.84   5.29   0.00   0.00   7.13    -1.13
  O       12     1.84   5.29   0.00   0.00   7.13    -1.13
  O       13     1.84   5.29   0.00   0.00   7.12    -1.12
  O       14     1.84   5.29   0.00   0.00   7.12    -1.12
  O       15     1.84   5.29   0.00   0.00   7.13    -1.13
  O       16     1.84   5.29   0.00   0.00   7.13    -1.13
  O       17     1.83   5.29   0.00   0.00   7.12    -1.12
  O       18     1.83   5.29   0.00   0.00   7.12    -1.12
  O       19     1.83   5.29   0.00   0.00   7.12    -1.12
  O       20     1.83   5.29   0.00   0.00   7.12    -1.12
  O       21     1.83   5.29   0.00   0.00   7.12    -1.12
  O       22     1.83   5.29   0.00   0.00   7.12    -1.12
  O       23     1.83   5.29   0.00   0.00   7.12    -1.12
  O       24     1.83   5.29   0.00   0.00   7.12    -1.12
  Na       1     2.04   5.78   0.00   0.00   7.82     1.18
  Na       2     2.04   5.78   0.00   0.00   7.82     1.18
  Na       3     2.04   5.78   0.00   0.00   7.82     1.18
  Na       4     2.04   5.78   0.00   0.00   7.82     1.18
  Al       1     0.51   0.91   0.00   0.00   1.43     1.57
  Al       2     0.51   0.91   0.00   0.00   1.43     1.57
  Al       3     0.51   0.91   0.00   0.00   1.43     1.57
  Al       4     0.51   0.91   0.00   0.00   1.43     1.57
  Si       1     0.69   1.36   0.00   0.00   2.05     1.95
  Si       2     0.69   1.36   0.00   0.00   2.05     1.95
  Si       3     0.69   1.36   0.00   0.00   2.05     1.95
  Si       4     0.69   1.36   0.00   0.00   2.05     1.95
  Si       5     0.69   1.36   0.00   0.00   2.05     1.95
  Si       6     0.69   1.36   0.00   0.00   2.05     1.95
  Si       7     0.69   1.36   0.00   0.00   2.05     1.95
  Si       8     0.69   1.36   0.00   0.00   2.05     1.95
==============================================================
 
     Bond                     Population      Length (A)
============================================================
   O 012 --   Si 004               0.76        1.59300
   O 016 --   Si 008               0.76        1.59300
   O 011 --   Si 003               0.76        1.59300
   O 015 --   Si 007               0.76        1.59300
   O 010 --   Si 002               0.76        1.59623
   O 014 --   Si 006               0.76        1.59623
   O 009 --   Si 001               0.76        1.59623
   O 013 --   Si 005               0.76        1.59623
   O 019 --   Si 003               0.56        1.63845
   O 023 --   Si 007               0.56        1.63845
   O 024 --   Si 008               0.56        1.63845
   O 020 --   Si 004               0.56        1.63845
   O 017 --   Si 001               0.56        1.63878
   O 021 --   Si 005               0.56        1.63878
   O 022 --   Si 006               0.56        1.63878
   O 018 --   Si 002               0.56        1.63878
   O 007 --   Si 007               0.59        1.63949
   O 003 --   Si 003               0.59        1.63949
   O 004 --   Si 004               0.59        1.63949
   O 008 --   Si 008               0.59        1.63949
   O 005 --   Si 005               0.59        1.64038
   O 001 --   Si 001               0.59        1.64038
   O 006 --   Si 006               0.59        1.64038
   O 002 --   Si 002               0.59        1.64038
   O 021 --   Si 003               0.58        1.64946
   O 017 --   Si 007               0.58        1.64946
   O 018 --   Si 008               0.58        1.64946
   O 022 --   Si 004               0.58        1.64946
   O 019 --   Si 005               0.58        1.65087
   O 023 --   Si 001               0.58        1.65087
   O 020 --   Si 006               0.58        1.65087
   O 024 --   Si 002               0.58        1.65087
   O 011 --   Al 002               0.43        1.84581
   O 015 --   Al 004               0.43        1.84581
   O 012 --   Al 001               0.43        1.84581
   O 016 --   Al 003               0.43        1.84581
   O 013 --   Al 004               0.42        1.86336
   O 009 --   Al 002               0.42        1.86336
   O 014 --   Al 003               0.42        1.86336
   O 010 --   Al 001               0.42        1.86336
   O 005 --   Al 001               0.32        1.96496
   O 001 --   Al 003               0.32        1.96496
   O 006 --   Al 002               0.32        1.96496
   O 002 --   Al 004               0.32        1.96496
   O 003 --   Al 003               0.31        1.97900
   O 007 --   Al 001               0.31        1.97900
   O 004 --   Al 004               0.31        1.97900
   O 008 --   Al 002               0.31        1.97900
   O 008 --   Al 004               0.32        1.98530
   O 004 --   Al 002               0.32        1.98530
   O 007 --   Al 003               0.32        1.98530
   O 003 --   Al 001               0.32        1.98530
   O 002 --   Al 002               0.31        2.01188
   O 006 --   Al 004               0.31        2.01188
   O 001 --   Al 001               0.31        2.01188
   O 005 --   Al 003               0.31        2.01188
   O 005 --   Na 003              -0.01        2.34341
   O 001 --   Na 001              -0.01        2.34341
   O 006 --   Na 004              -0.01        2.34342
   O 002 --   Na 002              -0.01        2.34342
   O 007 --   Na 003              -0.01        2.35415
   O 003 --   Na 001              -0.01        2.35415
   O 008 --   Na 004              -0.01        2.35415
   O 004 --   Na 002              -0.01        2.35415
   O 018 --   Na 001              -0.03        2.36859
   O 022 --   Na 003              -0.03        2.36859
   O 017 --   Na 002              -0.03        2.36859
   O 021 --   Na 004              -0.03        2.36859
   O 020 --   Na 001              -0.03        2.39009
   O 024 --   Na 003              -0.03        2.39009
   O 019 --   Na 002              -0.03        2.39009
   O 023 --   Na 004              -0.03        2.39009
   O 010 --   Na 003              -0.05        2.43976
   O 014 --   Na 001              -0.05        2.43976
   O 013 --   Na 002              -0.05        2.43976
   O 009 --   Na 004              -0.05        2.43976
   O 011 --   Na 004              -0.06        2.45962
   O 015 --   Na 002              -0.06        2.45962
   O 016 --   Na 001              -0.06        2.45962
   O 012 --   Na 003              -0.06        2.45962
   O 004 --    O 008              -0.11        2.46198
   O 003 --    O 007              -0.11        2.46198
   O 002 --    O 006              -0.10        2.48289
   O 001 --    O 005              -0.10        2.48289
   O 014 --    O 020              -0.10        2.57893
   O 010 --    O 024              -0.10        2.57893
   O 009 --    O 023              -0.10        2.57893
   O 013 --    O 019              -0.10        2.57893
   O 016 --    O 018              -0.10        2.57923
   O 012 --    O 022              -0.10        2.57923
   O 015 --    O 017              -0.10        2.57923
   O 011 --    O 021              -0.10        2.57923
   O 005 --    O 021              -0.09        2.62976
   O 001 --    O 017              -0.09        2.62976
   O 006 --    O 022              -0.09        2.62976
   O 002 --    O 018              -0.09        2.62976
   O 003 --    O 019              -0.09        2.63679
   O 007 --    O 023              -0.09        2.63679
   O 008 --    O 024              -0.09        2.63679
   O 004 --    O 020              -0.09        2.63679
   O 005 --    O 019              -0.08        2.64862
   O 001 --    O 023              -0.08        2.64862
   O 006 --    O 020              -0.08        2.64862
   O 002 --    O 024              -0.08        2.64862
   O 003 --    O 021              -0.08        2.65492
   O 007 --    O 017              -0.08        2.65492
   O 008 --    O 018              -0.08        2.65492
   O 004 --    O 022              -0.08        2.65492
   O 016 --    O 024              -0.08        2.65789
   O 012 --    O 020              -0.08        2.65789
   O 015 --    O 023              -0.08        2.65789
   O 011 --    O 019              -0.08        2.65789
   O 014 --    O 022              -0.08        2.65912
   O 010 --    O 018              -0.08        2.65912
   O 009 --    O 017              -0.08        2.65912
   O 013 --    O 021              -0.08        2.65912
   O 020 --    O 022              -0.15        2.66181
   O 018 --    O 024              -0.15        2.66181
   O 017 --    O 023              -0.15        2.66181
   O 019 --    O 021              -0.15        2.66181
   O 005 --    O 010              -0.07        2.71242
   O 001 --    O 014              -0.07        2.71242
   O 002 --    O 013              -0.07        2.71242
   O 006 --    O 009              -0.07        2.71242
   O 007 --    O 012              -0.07        2.71254
   O 003 --    O 016              -0.07        2.71254
   O 008 --    O 011              -0.07        2.71254
   O 004 --    O 015              -0.07        2.71254
   O 002 --    O 011              -0.05        2.71632
   O 006 --    O 015              -0.05        2.71632
   O 001 --    O 012              -0.05        2.71632
   O 005 --    O 016              -0.05        2.71632
   O 008 --    O 013              -0.05        2.71927
   O 004 --    O 009              -0.05        2.71927
   O 007 --    O 014              -0.05        2.71927
   O 003 --    O 010              -0.05        2.71927
   O 001 --    O 003              -0.05        2.74133
   O 005 --    O 007              -0.05        2.74133
   O 006 --    O 008              -0.05        2.74133
   O 002 --    O 004              -0.05        2.74133
   O 023 --   Na 002              -0.02        2.75766
   O 019 --   Na 004              -0.02        2.75766
   O 024 --   Na 001              -0.02        2.75766
   O 020 --   Na 003              -0.02        2.75766
   O 004 --    O 012              -0.06        2.76434
   O 008 --    O 016              -0.06        2.76434
   O 007 --    O 015              -0.06        2.76434
   O 003 --    O 011              -0.06        2.76434
   O 009 --    O 011              -0.05        2.77769
   O 013 --    O 015              -0.05        2.77769
   O 010 --    O 012              -0.05        2.77769
   O 014 --    O 016              -0.05        2.77769
   O 006 --    O 014              -0.06        2.78659
   O 002 --    O 010              -0.06        2.78659
   O 005 --    O 013              -0.06        2.78660
   O 001 --    O 009              -0.06        2.78660
   O 018 --    O 022              -0.04        2.79157
   O 017 --    O 021              -0.04        2.79157
   O 021 --   Na 002              -0.02        2.79377
   O 017 --   Na 004              -0.02        2.79377
   O 022 --   Na 001              -0.02        2.79377
   O 018 --   Na 003              -0.02        2.79377
   O 020 --    O 024              -0.03        2.79708
   O 019 --    O 023              -0.03        2.79708
   O 006 --    O 011              -0.04        2.81702
   O 002 --    O 015              -0.04        2.81702
   O 001 --    O 016              -0.04        2.81702
   O 005 --    O 012              -0.04        2.81702
   O 004 --    O 013              -0.04        2.85438
   O 008 --    O 009              -0.04        2.85438
   O 003 --    O 014              -0.04        2.85438
   O 007 --    O 010              -0.04        2.85438
   O 014 --    O 017              -0.02        2.91892
   O 010 --    O 021              -0.02        2.91892
   O 013 --    O 018              -0.02        2.91892
   O 009 --    O 022              -0.02        2.91892
   O 012 --    O 023              -0.02        2.94433
   O 016 --    O 019              -0.02        2.94433
   O 011 --    O 024              -0.02        2.94433
   O 015 --    O 020              -0.02        2.94433
   O 002 --    O 008              -0.05        2.95773
   O 004 --    O 006              -0.05        2.95773
   O 003 --    O 005              -0.05        2.95773
   O 001 --    O 007              -0.05        2.95773
============================================================
 
 
Writing model to jadeite_4_30_GPa_cij__2__5.check
 
Writing analysis data to jadeite_4_30_GPa_cij__2__5.castep_bin
Initialisation time =      2.32 s
Calculation time    =   4160.94 s
Finalisation time   =      1.38 s
Total time          =   4164.64 s
Peak Memory Use     = 290592 kB
