 +-------------------------------------------------+
 |                                                 |
 |      CCC   AA    SSS  TTTTT  EEEEE  PPPP        |
 |     C     A  A  S       T    E      P   P       |
 |     C     AAAA   SS     T    EEE    PPPP        |
 |     C     A  A     S    T    E      P           |
 |      CCC  A  A  SSS     T    EEEEE  P           |
 |                                                 |
 +-------------------------------------------------+
 |                                                 |
 | Welcome to Academic Release CASTEP version 5.02 |
 | Ab Initio Total Energy Program                  |
 |                                                 |
 | Authors:                                        |
 | M. Segall, M. Probert, C. Pickard, P. Hasnip,   |
 | S. Clark, K. Refson, M. Payne                   |
 |                                                 |
 | Contributors:                                   |
 | P. Lindan, P. Haynes, J. White, V. Milman,      |
 | N. Govind, M. Gibson, P. Tulip, V. Cocula,      |
 | B. Montanari, D. Quigley, M. Glover,            |
 | L. Bernasconi, A. Perlov, M. Plummer            |
 |                                                 |
 | Copyright (c) 2000 - 2009                       |
 |                                                 |
 |     Distributed under the terms of an           |
 |     Agreement between the United Kingdom        |
 |     Car-Parrinello (UKCP) Consortium,           |
 |     Daresbury Laboratory and Accelrys, Inc.     |
 |                                                 |
 | Please cite                                     |
 |                                                 |
 |     "First principles methods using CASTEP"     |
 |                                                 |
 |         Zeitschrift fuer Kristallographie       |
 |           220(5-6) pp. 567-570 (2005)           |
 |                                                 |
 | S. J. Clark, M. D. Segall, C. J. Pickard,       |
 | P. J. Hasnip, M. J. Probert, K. Refson,         |
 | M. C. Payne                                     |
 |                                                 |
 |       in all publications arising from          |
 |              your use of CASTEP                 |
 |                                                 |
 +-------------------------------------------------+
 
 
 Pseudo atomic calculation performed for O 2s2 2p4
 
 Converged in 36 iterations to a total energy of -429.6485 eV
 
 
 Pseudo atomic calculation performed for Na 2s2 2p6 3s1
 
 Converged in 33 iterations to a total energy of -1302.8467 eV
 
 
 Pseudo atomic calculation performed for Al 3s2 3p1
 
 Converged in 20 iterations to a total energy of -52.7392 eV
 
 
 Pseudo atomic calculation performed for Si 3s2 3p2
 
 Converged in 21 iterations to a total energy of -101.9044 eV
 
Calculation parallelised over   36 nodes.
K-points are distributed over    6 groups, each containing    6 nodes.

 ************************************ Title ************************************
 

 ***************************** General Parameters ******************************
  
 output verbosity                               : normal  (1)
 write checkpoint data to                       : jadeite_4_30_GPa_cij__2__1.check
 type of calculation                            : geometry optimization
 stress calculation                             : on
 density difference calculation                 : off
 electron localisation func (ELF) calculation   : off
 Hirshfeld analysis                             : off
 unlimited duration calculation
 timing information                             : on
 memory usage estimate                          : on
 write final potential to formatted file        : off
 write final density to formatted file          : off
  
 output         length unit                     : A
 output           mass unit                     : amu
 output           time unit                     : ps
 output         charge unit                     : e
 output         energy unit                     : eV
 output          force unit                     : eV/A
 output       velocity unit                     : A/ps
 output       pressure unit                     : GPa
 output     inv_length unit                     : 1/A
 output      frequency unit                     : cm-1
 output force constant unit                     : eV/A**2
 output         volume unit                     : A**3
 output   IR intensity unit                     : (D/A)**2/amu
 output         dipole unit                     : D
 output         efield unit                     : eV/A/e
  
 wavefunctions paging                           : none
 data distribution                              : optimal for this architecture
 optimization strategy                          : maximize speed(+++)

 *********************** Exchange-Correlation Parameters ***********************
  
 using functional                               : Perdew Burke Ernzerhof
 Divergence correction                          : off
 DFT+D: Semi-empirical dispersion correction    : off

 ************************* Pseudopotential Parameters **************************
  
 pseudopotential representation                 : reciprocal space
 <beta|phi> representation                      : reciprocal space

 **************************** Basis Set Parameters *****************************
  
 plane wave basis set cut-off                   :   700.0000   eV
 finite basis set correction                    : none

 **************************** Electronic Parameters ****************************
  
 number of  electrons                           :  224.0    
 net charge of system                           :  0.000    
 net spin   of system                           :  0.000    
 number of  up  spins                           :  112.0    
 number of down spins                           :  112.0    
 treating system as non-spin-polarized
 number of bands                                :        112

 ********************* Electronic Minimization Parameters **********************
  
 Method: Treating system as non-metallic,
         and number of  SD  steps               :          1
         and number of  CG  steps               :          4
  
 total energy / atom convergence tol.           : 0.1000E-07   eV
 max force / atom convergence tol.              : ignored
 convergence tolerance window                   :          3   cycles
 max. number of SCF cycles                      :        100

 *********************** Population Analysis Parameters ************************
  
 Population analysis with cutoff                :  3.000       A

 ********************** Geometry Optimization Parameters ***********************
  
 optimization method                            : BFGS
 variable cell method                           : fixed basis quality
 max. number of steps                           :        300
 estimated bulk modulus                         :  500.0       GPa
 estimated <frequency>                          :  1668.       cm-1
 line minimiser tolerance                       :     0.4000
 total energy convergence tolerance             : 0.2000E-06   eV/atom
        max ionic |force| tolerance             : 0.1000E-02   eV/A
 max ionic |displacement| tolerance             : 0.1000E-02   A
   max |stress component| tolerance             : 0.1000E-02   GPa
 convergence tolerance window                   :          2   steps
 backup results every                           :          1   steps

 *******************************************************************************
  
 
                           -------------------------------
                                      Unit Cell
                           -------------------------------
        Real Lattice(A)                      Reciprocal Lattice(1/A)
   8.9813393   0.0333333  -2.8290832        0.6995822   0.0000000   0.0000000
   0.0000000   8.5603493   0.0000000       -0.0027241   0.7339870   0.0000000
   0.0000000   0.0000000   5.2532512        0.3767527   0.0000000   1.1960565
 
                       Lattice parameters(A)       Cell Angles
                    a =    9.416437          alpha =   90.000000
                    b =    8.560349          beta  =  107.484090
                    c =    5.253251          gamma =   89.797178
 
                       Current cell volume =  403.887823       A**3
 
                           -------------------------------
                                     Cell Contents
                           -------------------------------
                         Total number of ions in cell =   40
                      Total number of species in cell =    4
                        Max number of any one species =   24
 
            xxxxxxxxxxxxxxxxxxxxxxxxxxxxxxxxxxxxxxxxxxxxxxxxxxxxxxxxxxxx
            x  Element    Atom        Fractional coordinates of atoms  x
            x            Number           u          v          w      x
            x----------------------------------------------------------x
            x  O            1         0.109277   0.076953   0.129205   x
            x  O            2         0.609279   0.576951   0.129208   x
            x  O            3         0.890723   0.076953   0.370795   x
            x  O            4         0.390721   0.576951   0.370792   x
            x  O            5         0.890723   0.923047   0.870795   x
            x  O            6         0.390721   0.423048   0.870792   x
            x  O            7         0.109277   0.923047   0.629205   x
            x  O            8         0.609279   0.423048   0.629208   x
            x  O            9         0.361047   0.263746   0.295383   x
            x  O           10         0.861046   0.763747   0.295382   x
            x  O           11         0.638953   0.263746   0.204617   x
            x  O           12         0.138954   0.763747   0.204618   x
            x  O           13         0.638953   0.736253   0.704617   x
            x  O           14         0.138954   0.236253   0.704618   x
            x  O           15         0.361047   0.736253   0.795383   x
            x  O           16         0.861046   0.236253   0.795382   x
            x  O           17         0.354029   0.008469   1.005059   x
            x  O           18         0.854032   0.508466   1.005069   x
            x  O           19         0.645971   0.008469   0.494941   x
            x  O           20         0.145968   0.508466   0.494931   x
            x  O           21         0.645971   0.991530  -0.005059   x
            x  O           22         0.145968   0.491534  -0.005069   x
            x  O           23         0.354029   0.991530   0.505059   x
            x  O           24         0.854032   0.491534   0.505069   x
            x  Na           1         0.000000   0.301230   0.250000   x
            x  Na           2         0.500000   0.801234   0.250000   x
            x  Na           3         0.000000   0.698770   0.750000   x
            x  Na           4         0.500000   0.198765   0.750000   x
            x  Al           1         0.000000   0.906276   0.250000   x
            x  Al           2         0.500000   0.406276   0.250000   x
            x  Al           3         0.000000   0.093723   0.750000   x
            x  Al           4         0.500000   0.593723   0.750000   x
            x  Si           1         0.290869   0.093824   0.228100   x
            x  Si           2         0.790871   0.593823   0.228106   x
            x  Si           3         0.709131   0.093824   0.271900   x
            x  Si           4         0.209129   0.593823   0.271894   x
            x  Si           5         0.709131   0.906175   0.771900   x
            x  Si           6         0.209129   0.406176   0.771894   x
            x  Si           7         0.290869   0.906175   0.728100   x
            x  Si           8         0.790871   0.406176   0.728106   x
            xxxxxxxxxxxxxxxxxxxxxxxxxxxxxxxxxxxxxxxxxxxxxxxxxxxxxxxxxxxx
 
 
                         No user defined ionic velocities
 
                           -------------------------------
                                   Details of Species
                           -------------------------------
 
                               Mass of species in AMU
                                    O   15.9994000
                                    Na   22.9897700
                                    Al   26.9815400
                                    Si   28.0855000
 
                          Electric Quadrupole Moment (Barn)
                                    O   -0.0255800 Isotope 17
                                    Na    0.1040000 Isotope 23
                                    Al    0.1466000 Isotope 27
                                    Si    1.0000000 No Isotope Defined
 
                          Files used for pseudopotentials:
                                    O O_00PBE.usp
                                    Na Na_00PBE.usp
                                    Al Al_00PBE.usp
                                    Si Si_00PBE.usp
 
                           -------------------------------
                              k-Points For BZ Sampling
                           -------------------------------
                       MP grid size for SCF calculation is  2  2  3
                         Number of kpoints used = 6
 
             +++++++++++++++++++++++++++++++++++++++++++++++++++++++
             +  Number       Fractional coordinates        Weight  +
             +-----------------------------------------------------+
             +     1  -0.250000   0.250000   0.333333   0.1666667  +
             +     2  -0.250000   0.250000   0.000000   0.1666667  +
             +     3   0.250000  -0.250000   0.333333   0.1666667  +
             +     4  -0.250000  -0.250000   0.333333   0.1666667  +
             +     5   0.250000   0.250000   0.000000   0.1666667  +
             +     6   0.250000   0.250000   0.333333   0.1666667  +
             +++++++++++++++++++++++++++++++++++++++++++++++++++++++
 
                           -------------------------------
                               Symmetry and Constraints
                           -------------------------------
 
                      Number of symmetry operations   = 2
                      Number of ionic constraints     = 3
                      Maximum deviation from symmetry = 0.997129E-15     ANG
               Point group of crystal =     2: Ci, -1, -1
           Set iprint > 1 for details on symmetry rotations/translations
 
                          Centre of mass is constrained
             Set iprint > 1 for details of linear ionic constraints
 
                         Number of cell constraints= 6
                         Cell constraints are:  0 0 0 0 0 0
 
                         External pressure/stress (GPa)
                          4.30000   0.00000   0.00000
                                    4.30000   0.00000
                                              4.30000
  
+---------------- MEMORY AND SCRATCH DISK ESTIMATES PER NODE -----------------+
|                                                     Memory          Disk    |
| Model and support data                               91.3 MB         0.0 MB |
| Electronic energy minimisation requirements          32.7 MB         0.0 MB |
|                                               ----------------------------- |
| Approx. total storage required per node             124.0 MB         0.0 MB |
|                                                                             |
| Requirements will fluctuate during execution and may exceed these estimates |
+-----------------------------------------------------------------------------+
------------------------------------------------------------------------ <-- SCF
SCF loop      Energy                           Energy gain       Timer   <-- SCF
                                               per atom          (sec)   <-- SCF
------------------------------------------------------------------------ <-- SCF
Initial  -1.61581571E+003                                          6.48  <-- SCF
      1  -1.65571402E+004                    3.73533112E+002      25.35  <-- SCF
      2  -1.68190188E+004                    6.54696536E+000      43.57  <-- SCF
      3  -1.68445029E+004                    6.37103675E-001      61.67  <-- SCF
      4  -1.68461200E+004                    4.04268906E-002      79.61  <-- SCF
      5  -1.68461594E+004                    9.85069021E-004      97.58  <-- SCF
      6  -1.68461601E+004                    1.72466796E-005     115.50  <-- SCF
      7  -1.68461601E+004                    4.49463144E-007     133.51  <-- SCF
      8  -1.68461601E+004                    1.41169939E-008     151.49  <-- SCF
      9  -1.68461601E+004                    4.53440941E-010     169.49  <-- SCF
     10  -1.68461601E+004                    1.37664144E-011     191.94  <-- SCF
------------------------------------------------------------------------ <-- SCF
 
Final energy =  -16846.16012776     eV
(energy not corrected for finite basis set)
 
 
Writing model to jadeite_4_30_GPa_cij__2__1.check
 
+---------------- MEMORY AND SCRATCH DISK ESTIMATES PER NODE -----------------+
|                                                     Memory          Disk    |
| Model and support data                               84.6 MB         0.0 MB |
| Geometry minimisation requirements                   38.0 MB         0.0 MB |
|                                               ----------------------------- |
| Approx. total storage required per node             122.6 MB         0.0 MB |
|                                                                             |
| Requirements will fluctuate during execution and may exceed these estimates |
+-----------------------------------------------------------------------------+
 
 
 *********************************** Forces ***********************************
 *                                                                            *
 *                        Cartesian components (eV/A)                         *
 * -------------------------------------------------------------------------- *
 *                   x                    y                    z              *
 *                                                                            *
 * O         1     -0.02648             -0.00157             -0.03255         *
 * O         2     -0.02663             -0.00152             -0.03259         *
 * O         3      0.01815             -0.00223              0.01904         *
 * O         4      0.01830             -0.00218              0.01907         *
 * O         5      0.02648              0.00157              0.03255         *
 * O         6      0.02663              0.00152              0.03259         *
 * O         7     -0.01815              0.00223             -0.01904         *
 * O         8     -0.01830              0.00218             -0.01907         *
 * O         9      0.00350             -0.03934             -0.02916         *
 * O        10      0.00364             -0.03926             -0.02915         *
 * O        11     -0.03494              0.04876              0.01610         *
 * O        12     -0.03507              0.04884              0.01609         *
 * O        13     -0.00350              0.03934              0.02916         *
 * O        14     -0.00364              0.03926              0.02915         *
 * O        15      0.03494             -0.04876             -0.01610         *
 * O        16      0.03507             -0.04884             -0.01609         *
 * O        17     -0.09065             -0.04848             -0.03411         *
 * O        18     -0.09071             -0.04841             -0.03416         *
 * O        19      0.08789              0.01457             -0.04503         *
 * O        20      0.08795              0.01464             -0.04498         *
 * O        21      0.09065              0.04848              0.03411         *
 * O        22      0.09071              0.04841              0.03416         *
 * O        23     -0.08789             -0.01457              0.04503         *
 * O        24     -0.08795             -0.01464              0.04498         *
 * Na        1      0.00614             -0.00062              0.00855         *
 * Na        2      0.00614             -0.00074              0.00855         *
 * Na        3     -0.00614              0.00062             -0.00855         *
 * Na        4     -0.00614              0.00074             -0.00855         *
 * Al        1     -0.02432              0.00969              0.00080         *
 * Al        2     -0.02432              0.00980              0.00080         *
 * Al        3      0.02432             -0.00969             -0.00080         *
 * Al        4      0.02432             -0.00980             -0.00080         *
 * Si        1      0.08789             -0.06649              0.01090         *
 * Si        2      0.08768             -0.06646              0.01088         *
 * Si        3     -0.09458             -0.22439             -0.00085         *
 * Si        4     -0.09438             -0.22436             -0.00084         *
 * Si        5     -0.08789              0.06649             -0.01090         *
 * Si        6     -0.08768              0.06646             -0.01088         *
 * Si        7      0.09458              0.22439              0.00085         *
 * Si        8      0.09438              0.22436              0.00084         *
 *                                                                            *
 ******************************************************************************
 BFGS: finished iteration     0 with enthalpy= -1.68353204E+004 eV
  
 +-----------+-----------------+-----------------+------------+-----+ <-- BFGS
 | Parameter |      value      |    tolerance    |    units   | OK? | <-- BFGS
 +-----------+-----------------+-----------------+------------+-----+ <-- BFGS
 |  dE/ion   |   0.000000E+000 |   2.000000E-007 |         eV | No  | <-- BFGS
 |  |F|max   |   2.435079E-001 |   1.000000E-003 |       eV/A | No  | <-- BFGS
 |  |dR|max  |   0.000000E+000 |   1.000000E-003 |          A | No  | <-- BFGS
 +-----------+-----------------+-----------------+------------+-----+ <-- BFGS
  

================================================================================
 Starting BFGS iteration          1 ...
================================================================================
 
Writing model to jadeite_4_30_GPa_cij__2__1.check
  
 +------------+-------------+-------------+-----------------+ <-- min BFGS
 |    Step    |   lambda    |   F.delta   |    enthalpy     | <-- min BFGS
 +------------+-------------+-------------+-----------------+ <-- min BFGS
 |  previous  |    0.000000 |    0.000073 |   -16835.320388 | <-- min BFGS
 +------------+-------------+-------------+-----------------+ <-- min BFGS
  

--------------------------------------------------------------------------------
 BFGS: starting iteration         1 with trial guess (lambda=  1.000000)
--------------------------------------------------------------------------------
 
                           -------------------------------
                                     Cell Contents
                           -------------------------------
 
            xxxxxxxxxxxxxxxxxxxxxxxxxxxxxxxxxxxxxxxxxxxxxxxxxxxxxxxxxxxx
            x  Element    Atom        Fractional coordinates of atoms  x
            x            Number           u          v          w      x
            x----------------------------------------------------------x
            x  O            1         0.109263   0.076952   0.129167   x
            x  O            2         0.609265   0.576951   0.129170   x
            x  O            3         0.890733   0.076952   0.370818   x
            x  O            4         0.390731   0.576950   0.370815   x
            x  O            5         0.890737   0.923048   0.870833   x
            x  O            6         0.390735   0.423049   0.870830   x
            x  O            7         0.109267   0.923048   0.629182   x
            x  O            8         0.609269   0.423050   0.629185   x
            x  O            9         0.361049   0.263724   0.295357   x
            x  O           10         0.861048   0.763725   0.295356   x
            x  O           11         0.638934   0.263774   0.204622   x
            x  O           12         0.138935   0.763775   0.204623   x
            x  O           13         0.638951   0.736276   0.704643   x
            x  O           14         0.138952   0.236275   0.704644   x
            x  O           15         0.361066   0.736226   0.795378   x
            x  O           16         0.861065   0.236225   0.795377   x
            x  O           17         0.353980   0.008442   1.005001   x
            x  O           18         0.853983   0.508439   1.005011   x
            x  O           19         0.646018   0.008478   0.494925   x
            x  O           20         0.146015   0.508474   0.494915   x
            x  O           21         0.646020   0.991558  -0.005001   x
            x  O           22         0.146017   0.491561  -0.005011   x
            x  O           23         0.353982   0.991522   0.505075   x
            x  O           24         0.853985   0.491526   0.505085   x
            x  Na           1         0.000003   0.301230   0.250010   x
            x  Na           2         0.500003   0.801234   0.250010   x
            x  Na           3        -0.000003   0.698770   0.749990   x
            x  Na           4         0.499997   0.198766   0.749990   x
            x  Al           1        -0.000013   0.906282   0.249994   x
            x  Al           2         0.499987   0.406282   0.249994   x
            x  Al           3         0.000013   0.093718   0.750006   x
            x  Al           4         0.500013   0.593718   0.750006   x
            x  Si           1         0.290916   0.093787   0.228136   x
            x  Si           2         0.790918   0.593786   0.228141   x
            x  Si           3         0.709080   0.093698   0.271872   x
            x  Si           4         0.209078   0.593697   0.271866   x
            x  Si           5         0.709084   0.906213   0.771864   x
            x  Si           6         0.209082   0.406214   0.771859   x
            x  Si           7         0.290920   0.906302   0.728128   x
            x  Si           8         0.790922   0.406303   0.728134   x
            xxxxxxxxxxxxxxxxxxxxxxxxxxxxxxxxxxxxxxxxxxxxxxxxxxxxxxxxxxxx
 
 
------------------------------------------------------------------------ <-- SCF
SCF loop      Energy                           Energy gain       Timer   <-- SCF
                                               per atom          (sec)   <-- SCF
------------------------------------------------------------------------ <-- SCF
Initial  -1.68461568E+004                                        202.27  <-- SCF
      1  -1.68461618E+004                    1.26993225E-004     220.43  <-- SCF
      2  -1.68461618E+004                    5.60464759E-008     238.46  <-- SCF
      3  -1.68461618E+004                    8.04793866E-010     257.94  <-- SCF
      4  -1.68461618E+004                    1.76333847E-011     278.24  <-- SCF
------------------------------------------------------------------------ <-- SCF
 
Final energy =  -16846.16183360     eV
(energy not corrected for finite basis set)
 
 
 *********************************** Forces ***********************************
 *                                                                            *
 *                        Cartesian components (eV/A)                         *
 * -------------------------------------------------------------------------- *
 *                   x                    y                    z              *
 *                                                                            *
 * O         1     -0.00819              0.00024             -0.03045         *
 * O         2     -0.00834              0.00029             -0.03048         *
 * O         3      0.00575             -0.00544              0.01687         *
 * O         4      0.00590             -0.00540              0.01691         *
 * O         5      0.00819             -0.00024              0.03045         *
 * O         6      0.00834             -0.00029              0.03048         *
 * O         7     -0.00575              0.00544             -0.01687         *
 * O         8     -0.00590              0.00540             -0.01691         *
 * O         9      0.00292             -0.04269             -0.02675         *
 * O        10      0.00302             -0.04266             -0.02674         *
 * O        11     -0.02310              0.01416              0.01698         *
 * O        12     -0.02320              0.01419              0.01697         *
 * O        13     -0.00292              0.04269              0.02675         *
 * O        14     -0.00302              0.04266              0.02674         *
 * O        15      0.02310             -0.01416             -0.01698         *
 * O        16      0.02320             -0.01419             -0.01697         *
 * O        17     -0.07456             -0.03585             -0.01796         *
 * O        18     -0.07464             -0.03578             -0.01801         *
 * O        19      0.07057              0.00368             -0.02871         *
 * O        20      0.07064              0.00374             -0.02866         *
 * O        21      0.07456              0.03585              0.01796         *
 * O        22      0.07464              0.03578              0.01801         *
 * O        23     -0.07057             -0.00368              0.02871         *
 * O        24     -0.07064             -0.00374              0.02866         *
 * Na        1      0.00413             -0.00587              0.00778         *
 * Na        2      0.00413             -0.00598              0.00778         *
 * Na        3     -0.00413              0.00587             -0.00778         *
 * Na        4     -0.00413              0.00598             -0.00778         *
 * Al        1     -0.02022              0.01069              0.00024         *
 * Al        2     -0.02023              0.01078              0.00024         *
 * Al        3      0.02022             -0.01069             -0.00024         *
 * Al        4      0.02023             -0.01078             -0.00024         *
 * Si        1      0.05925             -0.05542              0.00851         *
 * Si        2      0.05909             -0.05537              0.00850         *
 * Si        3     -0.07087             -0.15464             -0.00404         *
 * Si        4     -0.07071             -0.15459             -0.00402         *
 * Si        5     -0.05925              0.05542             -0.00851         *
 * Si        6     -0.05909              0.05537             -0.00850         *
 * Si        7      0.07087              0.15464              0.00404         *
 * Si        8      0.07071              0.15459              0.00402         *
 *                                                                            *
 ******************************************************************************
  
 +------------+-------------+-------------+-----------------+ <-- min BFGS
 |    Step    |   lambda    |   F.delta   |    enthalpy     | <-- min BFGS
 +------------+-------------+-------------+-----------------+ <-- min BFGS
 |  previous  |    0.000000 |    0.000073 |   -16835.320388 | <-- min BFGS
 | trial step |    1.000000 |    0.000052 |   -16835.322094 | <-- min BFGS
 +------------+-------------+-------------+-----------------+ <-- min BFGS
  

--------------------------------------------------------------------------------
 BFGS: improving iteration         1 with line minimization (lambda=  3.524823)
--------------------------------------------------------------------------------
 
                           -------------------------------
                                     Cell Contents
                           -------------------------------
 
            xxxxxxxxxxxxxxxxxxxxxxxxxxxxxxxxxxxxxxxxxxxxxxxxxxxxxxxxxxxx
            x  Element    Atom        Fractional coordinates of atoms  x
            x            Number           u          v          w      x
            x----------------------------------------------------------x
            x  O            1         0.109227   0.076950   0.129072   x
            x  O            2         0.609228   0.576949   0.129075   x
            x  O            3         0.890757   0.076948   0.370875   x
            x  O            4         0.390756   0.576947   0.370873   x
            x  O            5         0.890773   0.923050   0.870928   x
            x  O            6         0.390772   0.423051   0.870925   x
            x  O            7         0.109243   0.923052   0.629125   x
            x  O            8         0.609244   0.423053   0.629127   x
            x  O            9         0.361054   0.263668   0.295292   x
            x  O           10         0.861053   0.763669   0.295291   x
            x  O           11         0.638887   0.263844   0.204634   x
            x  O           12         0.138887   0.763845   0.204634   x
            x  O           13         0.638946   0.736332   0.704708   x
            x  O           14         0.138947   0.236331   0.704709   x
            x  O           15         0.361113   0.736156   0.795366   x
            x  O           16         0.861113   0.236155   0.795366   x
            x  O           17         0.353857   0.008374   1.004856   x
            x  O           18         0.853860   0.508370   1.004865   x
            x  O           19         0.646138   0.008498   0.494885   x
            x  O           20         0.146135   0.508495   0.494875   x
            x  O           21         0.646143   0.991626  -0.004856   x
            x  O           22         0.146140   0.491630  -0.004865   x
            x  O           23         0.353862   0.991502   0.505115   x
            x  O           24         0.853865   0.491505   0.505125   x
            x  Na           1         0.000012   0.301229   0.250034   x
            x  Na           2         0.500012   0.801233   0.250034   x
            x  Na           3        -0.000012   0.698771   0.749966   x
            x  Na           4         0.499988   0.198767   0.749966   x
            x  Al           1        -0.000046   0.906296   0.249978   x
            x  Al           2         0.499954   0.406296   0.249978   x
            x  Al           3         0.000046   0.093704   0.750022   x
            x  Al           4         0.500046   0.593704   0.750022   x
            x  Si           1         0.291036   0.093691   0.228225   x
            x  Si           2         0.791037   0.593691   0.228231   x
            x  Si           3         0.708951   0.093378   0.271801   x
            x  Si           4         0.208950   0.593377   0.271795   x
            x  Si           5         0.708964   0.906309   0.771775   x
            x  Si           6         0.208963   0.406309   0.771769   x
            x  Si           7         0.291049   0.906622   0.728199   x
            x  Si           8         0.791050   0.406623   0.728205   x
            xxxxxxxxxxxxxxxxxxxxxxxxxxxxxxxxxxxxxxxxxxxxxxxxxxxxxxxxxxxx
 
 
------------------------------------------------------------------------ <-- SCF
SCF loop      Energy                           Energy gain       Timer   <-- SCF
                                               per atom          (sec)   <-- SCF
------------------------------------------------------------------------ <-- SCF
Initial  -1.68461464E+004                                        286.36  <-- SCF
      1  -1.68461636E+004                    4.30836910E-004     304.88  <-- SCF
      2  -1.68461636E+004                    2.46421138E-007     322.87  <-- SCF
      3  -1.68461636E+004                    3.24879646E-009     341.58  <-- SCF
      4  -1.68461636E+004                    6.48104228E-011     360.30  <-- SCF
------------------------------------------------------------------------ <-- SCF
 
Final energy =  -16846.16363248     eV
(energy not corrected for finite basis set)
 
 
 *********************************** Forces ***********************************
 *                                                                            *
 *                        Cartesian components (eV/A)                         *
 * -------------------------------------------------------------------------- *
 *                   x                    y                    z              *
 *                                                                            *
 * O         1      0.03783              0.00480             -0.02509         *
 * O         2      0.03768              0.00484             -0.02512         *
 * O         3     -0.02548             -0.01357              0.01139         *
 * O         4     -0.02533             -0.01353              0.01142         *
 * O         5     -0.03783             -0.00480              0.02509         *
 * O         6     -0.03768             -0.00484              0.02512         *
 * O         7      0.02548              0.01357             -0.01139         *
 * O         8      0.02533              0.01353             -0.01142         *
 * O         9      0.00143             -0.05119             -0.02063         *
 * O        10      0.00147             -0.05125             -0.02061         *
 * O        11      0.00633             -0.07238              0.01906         *
 * O        12      0.00630             -0.07244              0.01904         *
 * O        13     -0.00143              0.05119              0.02063         *
 * O        14     -0.00147              0.05125              0.02061         *
 * O        15     -0.00633              0.07238             -0.01906         *
 * O        16     -0.00630              0.07244             -0.01904         *
 * O        17     -0.03376             -0.00360              0.02352         *
 * O        18     -0.03386             -0.00354              0.02347         *
 * O        19      0.02669             -0.02399              0.01307         *
 * O        20      0.02680             -0.02394              0.01312         *
 * O        21      0.03376              0.00360             -0.02352         *
 * O        22      0.03386              0.00354             -0.02347         *
 * O        23     -0.02669              0.02399             -0.01307         *
 * O        24     -0.02680              0.02394             -0.01312         *
 * Na        1     -0.00097             -0.01916              0.00583         *
 * Na        2     -0.00097             -0.01926              0.00583         *
 * Na        3      0.00097              0.01916             -0.00583         *
 * Na        4      0.00097              0.01926             -0.00583         *
 * Al        1     -0.00988              0.01323             -0.00115         *
 * Al        2     -0.00988              0.01327             -0.00115         *
 * Al        3      0.00988             -0.01323              0.00115         *
 * Al        4      0.00988             -0.01327              0.00115         *
 * Si        1     -0.01285             -0.02750              0.00243         *
 * Si        2     -0.01290             -0.02740              0.00242         *
 * Si        3     -0.01046              0.02082             -0.01187         *
 * Si        4     -0.01041              0.02092             -0.01186         *
 * Si        5      0.01285              0.02750             -0.00243         *
 * Si        6      0.01290              0.02740             -0.00242         *
 * Si        7      0.01046             -0.02082              0.01187         *
 * Si        8      0.01041             -0.02092              0.01186         *
 *                                                                            *
 ******************************************************************************
  
 +------------+-------------+-------------+-----------------+ <-- min BFGS
 |    Step    |   lambda    |   F.delta   |    enthalpy     | <-- min BFGS
 +------------+-------------+-------------+-----------------+ <-- min BFGS
 |  previous  |    0.000000 |    0.000073 |   -16835.320388 | <-- min BFGS
 | trial step |    1.000000 |    0.000052 |   -16835.322094 | <-- min BFGS
 |  line step |    3.524823 |    0.000000 |   -16835.323893 | <-- min BFGS
 +------------+-------------+-------------+-----------------+ <-- min BFGS
  
 BFGS: finished iteration     1 with enthalpy= -1.68353239E+004 eV
  
 +-----------+-----------------+-----------------+------------+-----+ <-- BFGS
 | Parameter |      value      |    tolerance    |    units   | OK? | <-- BFGS
 +-----------+-----------------+-----------------+------------+-----+ <-- BFGS
 |  dE/ion   |   8.761818E-005 |   2.000000E-007 |         eV | No  | <-- BFGS
 |  |F|max   |   7.516496E-002 |   1.000000E-003 |       eV/A | No  | <-- BFGS
 |  |dR|max  |   4.151093E-003 |   1.000000E-003 |          A | No  | <-- BFGS
 +-----------+-----------------+-----------------+------------+-----+ <-- BFGS
  

================================================================================
 Starting BFGS iteration          2 ...
================================================================================
 
Writing model to jadeite_4_30_GPa_cij__2__1.check
  
 +------------+-------------+-------------+-----------------+ <-- min BFGS
 |    Step    |   lambda    |   F.delta   |    enthalpy     | <-- min BFGS
 +------------+-------------+-------------+-----------------+ <-- min BFGS
 |  previous  |    0.000000 |    0.000012 |   -16835.323893 | <-- min BFGS
 +------------+-------------+-------------+-----------------+ <-- min BFGS
  

--------------------------------------------------------------------------------
 BFGS: starting iteration         2 with trial guess (lambda=  1.000000)
--------------------------------------------------------------------------------
 
                           -------------------------------
                                     Cell Contents
                           -------------------------------
 
            xxxxxxxxxxxxxxxxxxxxxxxxxxxxxxxxxxxxxxxxxxxxxxxxxxxxxxxxxxxx
            x  Element    Atom        Fractional coordinates of atoms  x
            x            Number           u          v          w      x
            x----------------------------------------------------------x
            x  O            1         0.109245   0.076953   0.129054   x
            x  O            2         0.609246   0.576951   0.129056   x
            x  O            3         0.890745   0.076941   0.370882   x
            x  O            4         0.390744   0.576939   0.370880   x
            x  O            5         0.890755   0.923047   0.870946   x
            x  O            6         0.390754   0.423049   0.870944   x
            x  O            7         0.109255   0.923059   0.629118   x
            x  O            8         0.609256   0.423061   0.629120   x
            x  O            9         0.361055   0.263635   0.295269   x
            x  O           10         0.861054   0.763636   0.295268   x
            x  O           11         0.638887   0.263808   0.204654   x
            x  O           12         0.138888   0.763808   0.204655   x
            x  O           13         0.638945   0.736365   0.704731   x
            x  O           14         0.138946   0.236364   0.704732   x
            x  O           15         0.361113   0.736192   0.795346   x
            x  O           16         0.861112   0.236192   0.795345   x
            x  O           17         0.353830   0.008367   1.004858   x
            x  O           18         0.853833   0.508364   1.004867   x
            x  O           19         0.646160   0.008486   0.494902   x
            x  O           20         0.146157   0.508482   0.494892   x
            x  O           21         0.646170   0.991633  -0.004858   x
            x  O           22         0.146167   0.491636  -0.004867   x
            x  O           23         0.353840   0.991514   0.505098   x
            x  O           24         0.853843   0.491518   0.505108   x
            x  Na           1         0.000012   0.301218   0.250041   x
            x  Na           2         0.500012   0.801222   0.250041   x
            x  Na           3        -0.000012   0.698782   0.749959   x
            x  Na           4         0.499988   0.198778   0.749959   x
            x  Al           1        -0.000054   0.906304   0.249973   x
            x  Al           2         0.499946   0.406305   0.249973   x
            x  Al           3         0.000054   0.093696   0.750027   x
            x  Al           4         0.500054   0.593695   0.750027   x
            x  Si           1         0.291037   0.093670   0.228230   x
            x  Si           2         0.791038   0.593669   0.228235   x
            x  Si           3         0.708937   0.093369   0.271782   x
            x  Si           4         0.208936   0.593368   0.271776   x
            x  Si           5         0.708963   0.906330   0.771770   x
            x  Si           6         0.208962   0.406331   0.771765   x
            x  Si           7         0.291063   0.906631   0.728218   x
            x  Si           8         0.791064   0.406632   0.728224   x
            xxxxxxxxxxxxxxxxxxxxxxxxxxxxxxxxxxxxxxxxxxxxxxxxxxxxxxxxxxxx
 
 
------------------------------------------------------------------------ <-- SCF
SCF loop      Energy                           Energy gain       Timer   <-- SCF
                                               per atom          (sec)   <-- SCF
------------------------------------------------------------------------ <-- SCF
Initial  -1.68461627E+004                                        369.47  <-- SCF
      1  -1.68461639E+004                    3.00747801E-005     387.62  <-- SCF
      2  -1.68461639E+004                    1.14467736E-008     405.65  <-- SCF
      3  -1.68461639E+004                    1.11987461E-010     423.73  <-- SCF
      4  -1.68461639E+004                    3.32559449E-012     445.56  <-- SCF
------------------------------------------------------------------------ <-- SCF
 
Final energy =  -16846.16394299     eV
(energy not corrected for finite basis set)
 
 
 *********************************** Forces ***********************************
 *                                                                            *
 *                        Cartesian components (eV/A)                         *
 * -------------------------------------------------------------------------- *
 *                   x                    y                    z              *
 *                                                                            *
 * O         1      0.03018              0.00241             -0.02363         *
 * O         2      0.03005              0.00246             -0.02365         *
 * O         3     -0.02299             -0.01401              0.01098         *
 * O         4     -0.02286             -0.01396              0.01100         *
 * O         5     -0.03018             -0.00241              0.02363         *
 * O         6     -0.03005             -0.00246              0.02365         *
 * O         7      0.02299              0.01401             -0.01098         *
 * O         8      0.02286              0.01396             -0.01100         *
 * O         9      0.00430             -0.04568             -0.01983         *
 * O        10      0.00434             -0.04573             -0.01981         *
 * O        11      0.00107             -0.06198              0.01820         *
 * O        12      0.00103             -0.06203              0.01818         *
 * O        13     -0.00430              0.04568              0.01983         *
 * O        14     -0.00434              0.04573              0.01981         *
 * O        15     -0.00107              0.06198             -0.01820         *
 * O        16     -0.00103              0.06203             -0.01818         *
 * O        17     -0.02845             -0.00458              0.02127         *
 * O        18     -0.02856             -0.00453              0.02122         *
 * O        19      0.02282             -0.02102              0.00908         *
 * O        20      0.02293             -0.02097              0.00913         *
 * O        21      0.02845              0.00458             -0.02127         *
 * O        22      0.02856              0.00453             -0.02122         *
 * O        23     -0.02282              0.02102             -0.00908         *
 * O        24     -0.02293              0.02097             -0.00913         *
 * Na        1     -0.00079             -0.01929              0.00598         *
 * Na        2     -0.00079             -0.01938              0.00598         *
 * Na        3      0.00079              0.01929             -0.00598         *
 * Na        4      0.00079              0.01938             -0.00598         *
 * Al        1     -0.00946              0.01018             -0.00051         *
 * Al        2     -0.00946              0.01022             -0.00051         *
 * Al        3      0.00946             -0.01018              0.00051         *
 * Al        4      0.00946             -0.01022              0.00051         *
 * Si        1     -0.01323             -0.02182              0.00166         *
 * Si        2     -0.01329             -0.02174              0.00164         *
 * Si        3     -0.00451              0.01744             -0.00865         *
 * Si        4     -0.00445              0.01751             -0.00864         *
 * Si        5      0.01323              0.02182             -0.00166         *
 * Si        6      0.01329              0.02174             -0.00164         *
 * Si        7      0.00451             -0.01744              0.00865         *
 * Si        8      0.00445             -0.01751              0.00864         *
 *                                                                            *
 ******************************************************************************
  
 +------------+-------------+-------------+-----------------+ <-- min BFGS
 |    Step    |   lambda    |   F.delta   |    enthalpy     | <-- min BFGS
 +------------+-------------+-------------+-----------------+ <-- min BFGS
 |  previous  |    0.000000 |    0.000012 |   -16835.323893 | <-- min BFGS
 | trial step |    1.000000 |    0.000011 |   -16835.324203 | <-- min BFGS
 +------------+-------------+-------------+-----------------+ <-- min BFGS
  

--------------------------------------------------------------------------------
 BFGS: improving iteration         2 with line minimization (lambda=  7.374933)
--------------------------------------------------------------------------------
 
                           -------------------------------
                                     Cell Contents
                           -------------------------------
 
            xxxxxxxxxxxxxxxxxxxxxxxxxxxxxxxxxxxxxxxxxxxxxxxxxxxxxxxxxxxx
            x  Element    Atom        Fractional coordinates of atoms  x
            x            Number           u          v          w      x
            x----------------------------------------------------------x
            x  O            1         0.109359   0.076968   0.128936   x
            x  O            2         0.609360   0.576967   0.128938   x
            x  O            3         0.890668   0.076891   0.370927   x
            x  O            4         0.390667   0.576889   0.370925   x
            x  O            5         0.890641   0.923032   0.871064   x
            x  O            6         0.390640   0.423033   0.871062   x
            x  O            7         0.109332   0.923109   0.629073   x
            x  O            8         0.609333   0.423111   0.629075   x
            x  O            9         0.361062   0.263427   0.295123   x
            x  O           10         0.861061   0.763427   0.295122   x
            x  O           11         0.638888   0.263576   0.204782   x
            x  O           12         0.138889   0.763577   0.204783   x
            x  O           13         0.638938   0.736573   0.704877   x
            x  O           14         0.138939   0.236573   0.704878   x
            x  O           15         0.361112   0.736424   0.795218   x
            x  O           16         0.861111   0.236423   0.795217   x
            x  O           17         0.353662   0.008325   1.004871   x
            x  O           18         0.853664   0.508322   1.004880   x
            x  O           19         0.646303   0.008407   0.495011   x
            x  O           20         0.146301   0.508404   0.495002   x
            x  O           21         0.646338   0.991675  -0.004871   x
            x  O           22         0.146336   0.491678  -0.004880   x
            x  O           23         0.353697   0.991593   0.504989   x
            x  O           24         0.853699   0.491596   0.504998   x
            x  Na           1         0.000012   0.301148   0.250084   x
            x  Na           2         0.500012   0.801152   0.250084   x
            x  Na           3        -0.000012   0.698852   0.749916   x
            x  Na           4         0.499988   0.198848   0.749916   x
            x  Al           1        -0.000102   0.906358   0.249941   x
            x  Al           2         0.499898   0.406359   0.249941   x
            x  Al           3         0.000102   0.093642   0.750059   x
            x  Al           4         0.500102   0.593641   0.750059   x
            x  Si           1         0.291044   0.093530   0.228259   x
            x  Si           2         0.791045   0.593529   0.228264   x
            x  Si           3         0.708846   0.093307   0.271662   x
            x  Si           4         0.208845   0.593307   0.271657   x
            x  Si           5         0.708956   0.906470   0.771741   x
            x  Si           6         0.208955   0.406471   0.771736   x
            x  Si           7         0.291154   0.906693   0.728338   x
            x  Si           8         0.791155   0.406693   0.728343   x
            xxxxxxxxxxxxxxxxxxxxxxxxxxxxxxxxxxxxxxxxxxxxxxxxxxxxxxxxxxxx
 
 
------------------------------------------------------------------------ <-- SCF
SCF loop      Energy                           Energy gain       Timer   <-- SCF
                                               per atom          (sec)   <-- SCF
------------------------------------------------------------------------ <-- SCF
Initial  -1.68461337E+004                                        453.68  <-- SCF
      1  -1.68461648E+004                    7.78118419E-004     471.73  <-- SCF
      2  -1.68461649E+004                    2.94030503E-007     489.73  <-- SCF
      3  -1.68461649E+004                    2.46712707E-009     507.73  <-- SCF
      4  -1.68461649E+004                    5.15853842E-011     527.19  <-- SCF
------------------------------------------------------------------------ <-- SCF
 
Final energy =  -16846.16485902     eV
(energy not corrected for finite basis set)
 
 
 *********************************** Forces ***********************************
 *                                                                            *
 *                        Cartesian components (eV/A)                         *
 * -------------------------------------------------------------------------- *
 *                   x                    y                    z              *
 *                                                                            *
 * O         1     -0.01860             -0.01272             -0.01432         *
 * O         2     -0.01859             -0.01265             -0.01432         *
 * O         3     -0.00715             -0.01679              0.00831         *
 * O         4     -0.00716             -0.01672              0.00831         *
 * O         5      0.01860              0.01272              0.01432         *
 * O         6      0.01859              0.01265              0.01432         *
 * O         7      0.00715              0.01679             -0.00831         *
 * O         8      0.00716              0.01672             -0.00831         *
 * O         9      0.02250             -0.01037             -0.01476         *
 * O        10      0.02256             -0.01033             -0.01473         *
 * O        11     -0.03242              0.00449              0.01270         *
 * O        12     -0.03247              0.00453              0.01267         *
 * O        13     -0.02250              0.01037              0.01476         *
 * O        14     -0.02256              0.01033              0.01473         *
 * O        15      0.03242             -0.00449             -0.01270         *
 * O        16      0.03247             -0.00453             -0.01267         *
 * O        17      0.00550             -0.01073              0.00691         *
 * O        18      0.00538             -0.01069              0.00687         *
 * O        19     -0.00198             -0.00194             -0.01651         *
 * O        20     -0.00186             -0.00190             -0.01647         *
 * O        21     -0.00550              0.01073             -0.00691         *
 * O        22     -0.00538              0.01069             -0.00687         *
 * O        23      0.00198              0.00194              0.01651         *
 * O        24      0.00186              0.00190              0.01647         *
 * Na        1      0.00034             -0.02007              0.00697         *
 * Na        2      0.00034             -0.02017              0.00696         *
 * Na        3     -0.00034              0.02007             -0.00697         *
 * Na        4     -0.00034              0.02017             -0.00696         *
 * Al        1     -0.00689             -0.00919              0.00364         *
 * Al        2     -0.00689             -0.00919              0.00364         *
 * Al        3      0.00689              0.00919             -0.00364         *
 * Al        4      0.00689              0.00919             -0.00364         *
 * Si        1     -0.01566              0.01447             -0.00335         *
 * Si        2     -0.01579              0.01440             -0.00339         *
 * Si        3      0.03353             -0.00446              0.01197         *
 * Si        4      0.03366             -0.00454              0.01201         *
 * Si        5      0.01566             -0.01447              0.00335         *
 * Si        6      0.01579             -0.01440              0.00339         *
 * Si        7     -0.03353              0.00446             -0.01197         *
 * Si        8     -0.03366              0.00454             -0.01201         *
 *                                                                            *
 ******************************************************************************
  
 +------------+-------------+-------------+-----------------+ <-- min BFGS
 |    Step    |   lambda    |   F.delta   |    enthalpy     | <-- min BFGS
 +------------+-------------+-------------+-----------------+ <-- min BFGS
 |  previous  |    0.000000 |    0.000012 |   -16835.323893 | <-- min BFGS
 | trial step |    1.000000 |    0.000011 |   -16835.324203 | <-- min BFGS
 |  line step |    7.374933 |    0.000000 |   -16835.325119 | <-- min BFGS
 +------------+-------------+-------------+-----------------+ <-- min BFGS
  
 BFGS: finished iteration     2 with enthalpy= -1.68353251E+004 eV
  
 +-----------+-----------------+-----------------+------------+-----+ <-- BFGS
 | Parameter |      value      |    tolerance    |    units   | OK? | <-- BFGS
 +-----------+-----------------+-----------------+------------+-----+ <-- BFGS
 |  dE/ion   |   3.066348E-005 |   2.000000E-007 |         eV | No  | <-- BFGS
 |  |F|max   |   3.602866E-002 |   1.000000E-003 |       eV/A | No  | <-- BFGS
 |  |dR|max  |   2.418810E-003 |   1.000000E-003 |          A | No  | <-- BFGS
 +-----------+-----------------+-----------------+------------+-----+ <-- BFGS
  

================================================================================
 Starting BFGS iteration          3 ...
================================================================================
 
Writing model to jadeite_4_30_GPa_cij__2__1.check
  
 +------------+-------------+-------------+-----------------+ <-- min BFGS
 |    Step    |   lambda    |   F.delta   |    enthalpy     | <-- min BFGS
 +------------+-------------+-------------+-----------------+ <-- min BFGS
 |  previous  |    0.000000 |    0.000004 |   -16835.325119 | <-- min BFGS
 +------------+-------------+-------------+-----------------+ <-- min BFGS
  

--------------------------------------------------------------------------------
 BFGS: starting iteration         3 with trial guess (lambda=  1.000000)
--------------------------------------------------------------------------------
 
                           -------------------------------
                                     Cell Contents
                           -------------------------------
 
            xxxxxxxxxxxxxxxxxxxxxxxxxxxxxxxxxxxxxxxxxxxxxxxxxxxxxxxxxxxx
            x  Element    Atom        Fractional coordinates of atoms  x
            x            Number           u          v          w      x
            x----------------------------------------------------------x
            x  O            1         0.109355   0.076962   0.128912   x
            x  O            2         0.609356   0.576961   0.128914   x
            x  O            3         0.890660   0.076879   0.370934   x
            x  O            4         0.390659   0.576877   0.370932   x
            x  O            5         0.890645   0.923038   0.871088   x
            x  O            6         0.390644   0.423039   0.871086   x
            x  O            7         0.109340   0.923121   0.629066   x
            x  O            8         0.609341   0.423123   0.629068   x
            x  O            9         0.361074   0.263411   0.295108   x
            x  O           10         0.861074   0.763411   0.295108   x
            x  O           11         0.638871   0.263567   0.204791   x
            x  O           12         0.138872   0.763567   0.204792   x
            x  O           13         0.638926   0.736589   0.704892   x
            x  O           14         0.138926   0.236589   0.704892   x
            x  O           15         0.361129   0.736433   0.795209   x
            x  O           16         0.861128   0.236433   0.795208   x
            x  O           17         0.353657   0.008317   1.004881   x
            x  O           18         0.853659   0.508314   1.004890   x
            x  O           19         0.646309   0.008402   0.495001   x
            x  O           20         0.146306   0.508399   0.494992   x
            x  O           21         0.646343   0.991683  -0.004881   x
            x  O           22         0.146341   0.491686  -0.004890   x
            x  O           23         0.353691   0.991598   0.504999   x
            x  O           24         0.853694   0.491601   0.505008   x
            x  Na           1         0.000012   0.301134   0.250092   x
            x  Na           2         0.500012   0.801137   0.250092   x
            x  Na           3        -0.000012   0.698866   0.749908   x
            x  Na           4         0.499988   0.198863   0.749908   x
            x  Al           1        -0.000108   0.906356   0.249941   x
            x  Al           2         0.499892   0.406356   0.249941   x
            x  Al           3         0.000108   0.093644   0.750059   x
            x  Al           4         0.500108   0.593644   0.750059   x
            x  Si           1         0.291035   0.093531   0.228252   x
            x  Si           2         0.791036   0.593531   0.228257   x
            x  Si           3         0.708860   0.093303   0.271677   x
            x  Si           4         0.208859   0.593303   0.271672   x
            x  Si           5         0.708965   0.906469   0.771748   x
            x  Si           6         0.208964   0.406469   0.771743   x
            x  Si           7         0.291140   0.906697   0.728323   x
            x  Si           8         0.791141   0.406697   0.728328   x
            xxxxxxxxxxxxxxxxxxxxxxxxxxxxxxxxxxxxxxxxxxxxxxxxxxxxxxxxxxxx
 
 
------------------------------------------------------------------------ <-- SCF
SCF loop      Energy                           Energy gain       Timer   <-- SCF
                                               per atom          (sec)   <-- SCF
------------------------------------------------------------------------ <-- SCF
Initial  -1.68461645E+004                                        536.43  <-- SCF
      1  -1.68461650E+004                    1.09084534E-005     554.52  <-- SCF
      2  -1.68461650E+004                    4.31754972E-009     572.59  <-- SCF
      3  -1.68461650E+004                    3.03943868E-011     592.09  <-- SCF
------------------------------------------------------------------------ <-- SCF
 
Final energy =  -16846.16496859     eV
(energy not corrected for finite basis set)
 
 
 *********************************** Forces ***********************************
 *                                                                            *
 *                        Cartesian components (eV/A)                         *
 * -------------------------------------------------------------------------- *
 *                   x                    y                    z              *
 *                                                                            *
 * O         1     -0.01890             -0.01215             -0.01266         *
 * O         2     -0.01891             -0.01208             -0.01267         *
 * O         3     -0.00174             -0.01665              0.00780         *
 * O         4     -0.00174             -0.01658              0.00781         *
 * O         5      0.01890              0.01215              0.01266         *
 * O         6      0.01891              0.01208              0.01267         *
 * O         7      0.00174              0.01665             -0.00780         *
 * O         8      0.00174              0.01658             -0.00781         *
 * O         9      0.02185             -0.00750             -0.01340         *
 * O        10      0.02189             -0.00749             -0.01337         *
 * O        11     -0.03004              0.00363              0.01238         *
 * O        12     -0.03008              0.00364              0.01236         *
 * O        13     -0.02185              0.00750              0.01340         *
 * O        14     -0.02189              0.00749              0.01337         *
 * O        15      0.03004             -0.00363             -0.01238         *
 * O        16      0.03008             -0.00364             -0.01236         *
 * O        17      0.00476             -0.01139              0.00570         *
 * O        18      0.00465             -0.01135              0.00565         *
 * O        19     -0.00153             -0.00358             -0.01413         *
 * O        20     -0.00141             -0.00354             -0.01409         *
 * O        21     -0.00476              0.01139             -0.00570         *
 * O        22     -0.00465              0.01135             -0.00565         *
 * O        23      0.00153              0.00358              0.01413         *
 * O        24      0.00141              0.00354              0.01409         *
 * Na        1      0.00010             -0.01909              0.00662         *
 * Na        2      0.00010             -0.01918              0.00662         *
 * Na        3     -0.00010              0.01909             -0.00662         *
 * Na        4     -0.00010              0.01918             -0.00662         *
 * Al        1     -0.00612             -0.00985              0.00285         *
 * Al        2     -0.00612             -0.00985              0.00285         *
 * Al        3      0.00612              0.00985             -0.00285         *
 * Al        4      0.00612              0.00985             -0.00285         *
 * Si        1     -0.01347              0.01107             -0.00319         *
 * Si        2     -0.01357              0.01103             -0.00322         *
 * Si        3      0.02590             -0.00267              0.00974         *
 * Si        4      0.02600             -0.00272              0.00977         *
 * Si        5      0.01347             -0.01107              0.00319         *
 * Si        6      0.01357             -0.01103              0.00322         *
 * Si        7     -0.02590              0.00267             -0.00974         *
 * Si        8     -0.02600              0.00272             -0.00977         *
 *                                                                            *
 ******************************************************************************
  
 +------------+-------------+-------------+-----------------+ <-- min BFGS
 |    Step    |   lambda    |   F.delta   |    enthalpy     | <-- min BFGS
 +------------+-------------+-------------+-----------------+ <-- min BFGS
 |  previous  |    0.000000 |    0.000004 |   -16835.325119 | <-- min BFGS
 | trial step |    1.000000 |    0.000004 |   -16835.325229 | <-- min BFGS
 +------------+-------------+-------------+-----------------+ <-- min BFGS
  

--------------------------------------------------------------------------------
 BFGS: improving iteration         3 with line minimization (lambda=  9.155804)
--------------------------------------------------------------------------------
 
                           -------------------------------
                                     Cell Contents
                           -------------------------------
 
            xxxxxxxxxxxxxxxxxxxxxxxxxxxxxxxxxxxxxxxxxxxxxxxxxxxxxxxxxxxx
            x  Element    Atom        Fractional coordinates of atoms  x
            x            Number           u          v          w      x
            x----------------------------------------------------------x
            x  O            1         0.109323   0.076911   0.128715   x
            x  O            2         0.609324   0.576910   0.128717   x
            x  O            3         0.890596   0.076781   0.370996   x
            x  O            4         0.390595   0.576780   0.370994   x
            x  O            5         0.890677   0.923089   0.871285   x
            x  O            6         0.390676   0.423090   0.871283   x
            x  O            7         0.109404   0.923219   0.629004   x
            x  O            8         0.609405   0.423220   0.629006   x
            x  O            9         0.361175   0.263277   0.294992   x
            x  O           10         0.861175   0.763278   0.294992   x
            x  O           11         0.638732   0.263488   0.204863   x
            x  O           12         0.138732   0.763489   0.204864   x
            x  O           13         0.638825   0.736723   0.705008   x
            x  O           14         0.138825   0.236722   0.705008   x
            x  O           15         0.361268   0.736512   0.795137   x
            x  O           16         0.861268   0.236511   0.795136   x
            x  O           17         0.353615   0.008253   1.004957   x
            x  O           18         0.853617   0.508250   1.004965   x
            x  O           19         0.646355   0.008360   0.494920   x
            x  O           20         0.146353   0.508357   0.494912   x
            x  O           21         0.646385   0.991747  -0.004957   x
            x  O           22         0.146383   0.491750  -0.004965   x
            x  O           23         0.353645   0.991640   0.505080   x
            x  O           24         0.853647   0.491643   0.505088   x
            x  Na           1         0.000013   0.301012   0.250162   x
            x  Na           2         0.500013   0.801015   0.250162   x
            x  Na           3        -0.000013   0.698988   0.749838   x
            x  Na           4         0.499987   0.198985   0.749838   x
            x  Al           1        -0.000157   0.906336   0.249939   x
            x  Al           2         0.499843   0.406336   0.249939   x
            x  Al           3         0.000157   0.093664   0.750061   x
            x  Al           4         0.500157   0.593664   0.750061   x
            x  Si           1         0.290965   0.093543   0.228198   x
            x  Si           2         0.790965   0.593543   0.228203   x
            x  Si           3         0.708974   0.093269   0.271799   x
            x  Si           4         0.208974   0.593269   0.271794   x
            x  Si           5         0.709035   0.906457   0.771802   x
            x  Si           6         0.209035   0.406457   0.771797   x
            x  Si           7         0.291026   0.906731   0.728201   x
            x  Si           8         0.791026   0.406731   0.728206   x
            xxxxxxxxxxxxxxxxxxxxxxxxxxxxxxxxxxxxxxxxxxxxxxxxxxxxxxxxxxxx
 
 
------------------------------------------------------------------------ <-- SCF
SCF loop      Energy                           Energy gain       Timer   <-- SCF
                                               per atom          (sec)   <-- SCF
------------------------------------------------------------------------ <-- SCF
Initial  -1.68461461E+004                                        600.61  <-- SCF
      1  -1.68461654E+004                    4.83082059E-004     618.64  <-- SCF
      2  -1.68461654E+004                    1.93078911E-007     636.58  <-- SCF
      3  -1.68461654E+004                    1.29234149E-009     654.56  <-- SCF
      4  -1.68461654E+004                    2.75328288E-011     673.31  <-- SCF
------------------------------------------------------------------------ <-- SCF
 
Final energy =  -16846.16538924     eV
(energy not corrected for finite basis set)
 
 
 *********************************** Forces ***********************************
 *                                                                            *
 *                        Cartesian components (eV/A)                         *
 * -------------------------------------------------------------------------- *
 *                   x                    y                    z              *
 *                                                                            *
 * O         1     -0.02145             -0.00751              0.00084         *
 * O         2     -0.02159             -0.00750              0.00083         *
 * O         3      0.04253             -0.01555              0.00369         *
 * O         4      0.04267             -0.01554              0.00369         *
 * O         5      0.02145              0.00751             -0.00084         *
 * O         6      0.02159              0.00750             -0.00083         *
 * O         7     -0.04253              0.01555             -0.00369         *
 * O         8     -0.04267              0.01554             -0.00369         *
 * O         9      0.01649              0.01593             -0.00225         *
 * O        10      0.01639              0.01571             -0.00223         *
 * O        11     -0.01068             -0.00329              0.00978         *
 * O        12     -0.01057             -0.00351              0.00977         *
 * O        13     -0.01649             -0.01593              0.00225         *
 * O        14     -0.01639             -0.01571              0.00223         *
 * O        15      0.01068              0.00329             -0.00978         *
 * O        16      0.01057              0.00351             -0.00977         *
 * O        17     -0.00120             -0.01677             -0.00417         *
 * O        18     -0.00130             -0.01675             -0.00423         *
 * O        19      0.00204             -0.01694              0.00521         *
 * O        20      0.00215             -0.01692              0.00528         *
 * O        21      0.00120              0.01677              0.00417         *
 * O        22      0.00130              0.01675              0.00423         *
 * O        23     -0.00204              0.01694             -0.00521         *
 * O        24     -0.00215              0.01692             -0.00528         *
 * Na        1     -0.00191             -0.01106              0.00379         *
 * Na        2     -0.00191             -0.01110              0.00379         *
 * Na        3      0.00191              0.01106             -0.00379         *
 * Na        4      0.00191              0.01110             -0.00379         *
 * Al        1      0.00017             -0.01520             -0.00364         *
 * Al        2      0.00018             -0.01526             -0.00364         *
 * Al        3     -0.00017              0.01520              0.00364         *
 * Al        4     -0.00018              0.01526              0.00364         *
 * Si        1      0.00433             -0.01665             -0.00187         *
 * Si        2      0.00451             -0.01643             -0.00188         *
 * Si        3     -0.03648              0.01196             -0.00844         *
 * Si        4     -0.03667              0.01218             -0.00844         *
 * Si        5     -0.00433              0.01665              0.00187         *
 * Si        6     -0.00451              0.01643              0.00188         *
 * Si        7      0.03648             -0.01196              0.00844         *
 * Si        8      0.03667             -0.01218              0.00844         *
 *                                                                            *
 ******************************************************************************
  
 +------------+-------------+-------------+-----------------+ <-- min BFGS
 |    Step    |   lambda    |   F.delta   |    enthalpy     | <-- min BFGS
 +------------+-------------+-------------+-----------------+ <-- min BFGS
 |  previous  |    0.000000 |    0.000004 |   -16835.325119 | <-- min BFGS
 | trial step |    1.000000 |    0.000004 |   -16835.325229 | <-- min BFGS
 |  line step |    9.155804 |    0.000000 |   -16835.325650 | <-- min BFGS
 +------------+-------------+-------------+-----------------+ <-- min BFGS
  
 BFGS: finished iteration     3 with enthalpy= -1.68353256E+004 eV
  
 +-----------+-----------------+-----------------+------------+-----+ <-- BFGS
 | Parameter |      value      |    tolerance    |    units   | OK? | <-- BFGS
 +-----------+-----------------+-----------------+------------+-----+ <-- BFGS
 |  dE/ion   |   1.325553E-005 |   2.000000E-007 |         eV | No  | <-- BFGS
 |  |F|max   |   4.556165E-002 |   1.000000E-003 |       eV/A | No  | <-- BFGS
 |  |dR|max  |   1.921480E-003 |   1.000000E-003 |          A | No  | <-- BFGS
 +-----------+-----------------+-----------------+------------+-----+ <-- BFGS
  

================================================================================
 Starting BFGS iteration          4 ...
[...]
            x  O           20         0.146341   0.507704   0.494229   x
            x  O           21         0.646367   0.992455  -0.005725   x
            x  O           22         0.146367   0.492455  -0.005725   x
            x  O           23         0.353658   0.992296   0.505770   x
            x  O           24         0.853659   0.492296   0.505771   x
            x  Na           1        -0.000135   0.300488   0.250489   x
            x  Na           2         0.499865   0.800488   0.250489   x
            x  Na           3         0.000135   0.699512   0.749511   x
            x  Na           4         0.500135   0.199512   0.749511   x
            x  Al           1        -0.000185   0.906302   0.249900   x
            x  Al           2         0.499815   0.406302   0.249900   x
            x  Al           3         0.000185   0.093698   0.750100   x
            x  Al           4         0.500185   0.593698   0.750100   x
            x  Si           1         0.290918   0.093492   0.228245   x
            x  Si           2         0.790918   0.593492   0.228245   x
            x  Si           3         0.708912   0.093260   0.271663   x
            x  Si           4         0.208912   0.593260   0.271662   x
            x  Si           5         0.709082   0.906508   0.771755   x
            x  Si           6         0.209082   0.406508   0.771755   x
            x  Si           7         0.291088   0.906740   0.728337   x
            x  Si           8         0.791088   0.406740   0.728338   x
            xxxxxxxxxxxxxxxxxxxxxxxxxxxxxxxxxxxxxxxxxxxxxxxxxxxxxxxxxxxx
 
 
 BFGS: Final Enthalpy     = -1.68353264E+004 eV
 BFGS: Final <frequency>  =     958.74833 cm-1
 
 ***************************** Symmetrised Forces *****************************
 *                                                                            *
 *                        Cartesian components (eV/A)                         *
 * -------------------------------------------------------------------------- *
 *                   x                    y                    z              *
 *                                                                            *
 * O         1     -0.00012             -0.00002             -0.00001         *
 * O         2     -0.00013             -0.00002             -0.00001         *
 * O         3      0.00038             -0.00011              0.00017         *
 * O         4      0.00038             -0.00011              0.00017         *
 * O         5      0.00012              0.00002              0.00001         *
 * O         6      0.00013              0.00002              0.00001         *
 * O         7     -0.00038              0.00011             -0.00017         *
 * O         8     -0.00038              0.00011             -0.00017         *
 * O         9     -0.00022              0.00018              0.00076         *
 * O        10     -0.00022              0.00018              0.00076         *
 * O        11      0.00004              0.00004             -0.00022         *
 * O        12      0.00004              0.00003             -0.00022         *
 * O        13      0.00022             -0.00018             -0.00076         *
 * O        14      0.00022             -0.00018             -0.00076         *
 * O        15     -0.00004             -0.00004              0.00022         *
 * O        16     -0.00004             -0.00003              0.00022         *
 * O        17     -0.00009              0.00009              0.00027         *
 * O        18     -0.00010              0.00009              0.00027         *
 * O        19      0.00048              0.00015              0.00010         *
 * O        20      0.00049              0.00015              0.00010         *
 * O        21      0.00009             -0.00009             -0.00027         *
 * O        22      0.00010             -0.00009             -0.00027         *
 * O        23     -0.00048             -0.00015             -0.00010         *
 * O        24     -0.00049             -0.00015             -0.00010         *
 * Na        1      0.00008             -0.00062              0.00015         *
 * Na        2      0.00008             -0.00062              0.00015         *
 * Na        3     -0.00008              0.00062             -0.00015         *
 * Na        4     -0.00008              0.00062             -0.00015         *
 * Al        1     -0.00036              0.00055              0.00030         *
 * Al        2     -0.00036              0.00055              0.00030         *
 * Al        3      0.00036             -0.00055             -0.00030         *
 * Al        4      0.00036             -0.00055             -0.00030         *
 * Si        1      0.00003              0.00006              0.00033         *
 * Si        2      0.00003              0.00007              0.00033         *
 * Si        3      0.00029              0.00003             -0.00010         *
 * Si        4      0.00029              0.00005             -0.00010         *
 * Si        5     -0.00003             -0.00006             -0.00033         *
 * Si        6     -0.00003             -0.00007             -0.00033         *
 * Si        7     -0.00029             -0.00003              0.00010         *
 * Si        8     -0.00029             -0.00005              0.00010         *
 *                                                                            *
 ******************************************************************************
 
 *********** Symmetrised Stress Tensor ***********
 *                                               *
 *          Cartesian components (GPa)           *
 * --------------------------------------------- *
 *             x             y             z     *
 *                                               *
 *  x     -3.622473      0.339796      0.319641  *
 *  y      0.339796     -3.538700      0.045299  *
 *  z      0.319641      0.045299     -2.270252  *
 *                                               *
 *  Pressure:    3.1438                          *
 *                                               *
 *************************************************
 
 Pseudo atomic calculation performed for O 2s2 2p4
 
 Converged in 36 iterations to a total energy of -429.6485 eV
 
 
 Pseudo atomic calculation performed for Na 2s2 2p6 3s1
 
 Converged in 33 iterations to a total energy of -1302.8467 eV
 
 
 Pseudo atomic calculation performed for Al 3s2 3p1
 
 Converged in 20 iterations to a total energy of -52.7392 eV
 
 
 Pseudo atomic calculation performed for Si 3s2 3p2
 
 Converged in 21 iterations to a total energy of -101.9044 eV
 
Charge spilling parameter for spin component 1 = 0.85%
 
     Atomic Populations (Mulliken)
     -----------------------------
Species   Ion     s      p      d      f     Total  Charge (e)
==============================================================
  O        1     1.85   5.24   0.00   0.00   7.08    -1.08
  O        2     1.85   5.24   0.00   0.00   7.08    -1.08
  O        3     1.85   5.24   0.00   0.00   7.08    -1.08
  O        4     1.85   5.24   0.00   0.00   7.08    -1.08
  O        5     1.85   5.24   0.00   0.00   7.08    -1.08
  O        6     1.85   5.24   0.00   0.00   7.08    -1.08
  O        7     1.85   5.24   0.00   0.00   7.08    -1.08
  O        8     1.85   5.24   0.00   0.00   7.08    -1.08
  O        9     1.84   5.29   0.00   0.00   7.12    -1.12
  O       10     1.84   5.29   0.00   0.00   7.12    -1.12
  O       11     1.84   5.29   0.00   0.00   7.12    -1.12
  O       12     1.84   5.29   0.00   0.00   7.12    -1.12
  O       13     1.84   5.29   0.00   0.00   7.12    -1.12
  O       14     1.84   5.29   0.00   0.00   7.12    -1.12
  O       15     1.84   5.29   0.00   0.00   7.12    -1.12
  O       16     1.84   5.29   0.00   0.00   7.12    -1.12
  O       17     1.83   5.30   0.00   0.00   7.12    -1.12
  O       18     1.83   5.30   0.00   0.00   7.12    -1.12
  O       19     1.83   5.30   0.00   0.00   7.12    -1.12
  O       20     1.83   5.30   0.00   0.00   7.12    -1.12
  O       21     1.83   5.30   0.00   0.00   7.12    -1.12
  O       22     1.83   5.30   0.00   0.00   7.12    -1.12
  O       23     1.83   5.30   0.00   0.00   7.12    -1.12
  O       24     1.83   5.30   0.00   0.00   7.12    -1.12
  Na       1     2.04   5.78   0.00   0.00   7.82     1.18
  Na       2     2.04   5.78   0.00   0.00   7.82     1.18
  Na       3     2.04   5.78   0.00   0.00   7.82     1.18
  Na       4     2.04   5.78   0.00   0.00   7.82     1.18
  Al       1     0.51   0.91   0.00   0.00   1.42     1.58
  Al       2     0.51   0.91   0.00   0.00   1.42     1.58
  Al       3     0.51   0.91   0.00   0.00   1.42     1.58
  Al       4     0.51   0.91   0.00   0.00   1.42     1.58
  Si       1     0.69   1.36   0.00   0.00   2.05     1.95
  Si       2     0.69   1.36   0.00   0.00   2.05     1.95
  Si       3     0.69   1.36   0.00   0.00   2.05     1.95
  Si       4     0.69   1.36   0.00   0.00   2.05     1.95
  Si       5     0.69   1.36   0.00   0.00   2.05     1.95
  Si       6     0.69   1.36   0.00   0.00   2.05     1.95
  Si       7     0.69   1.36   0.00   0.00   2.05     1.95
  Si       8     0.69   1.36   0.00   0.00   2.05     1.95
==============================================================
 
     Bond                     Population      Length (A)
============================================================
   O 011 --   Si 003               0.76        1.59269
   O 015 --   Si 007               0.76        1.59269
   O 012 --   Si 004               0.76        1.59269
   O 016 --   Si 008               0.76        1.59269
   O 013 --   Si 005               0.76        1.59373
   O 009 --   Si 001               0.76        1.59373
   O 014 --   Si 006               0.76        1.59373
   O 010 --   Si 002               0.76        1.59373
   O 019 --   Si 003               0.56        1.63326
   O 023 --   Si 007               0.56        1.63326
   O 024 --   Si 008               0.56        1.63326
   O 020 --   Si 004               0.56        1.63326
   O 017 --   Si 001               0.56        1.63347
   O 021 --   Si 005               0.56        1.63347
   O 022 --   Si 006               0.56        1.63347
   O 018 --   Si 002               0.56        1.63347
   O 004 --   Si 004               0.59        1.63805
   O 008 --   Si 008               0.59        1.63805
   O 003 --   Si 003               0.59        1.63805
   O 007 --   Si 007               0.59        1.63805
   O 005 --   Si 005               0.59        1.63852
   O 001 --   Si 001               0.59        1.63852
   O 002 --   Si 002               0.59        1.63852
   O 006 --   Si 006               0.59        1.63852
   O 017 --   Si 007               0.58        1.64402
   O 021 --   Si 003               0.58        1.64402
   O 018 --   Si 008               0.58        1.64402
   O 022 --   Si 004               0.58        1.64402
   O 023 --   Si 001               0.58        1.64432
   O 019 --   Si 005               0.58        1.64432
   O 024 --   Si 002               0.58        1.64432
   O 020 --   Si 006               0.58        1.64432
   O 016 --   Al 003               0.42        1.85234
   O 012 --   Al 001               0.42        1.85234
   O 015 --   Al 004               0.42        1.85234
   O 011 --   Al 002               0.42        1.85234
   O 014 --   Al 003               0.42        1.85811
   O 010 --   Al 001               0.42        1.85811
   O 009 --   Al 002               0.42        1.85811
   O 013 --   Al 004               0.42        1.85811
   O 005 --   Al 001               0.32        1.95052
   O 001 --   Al 003               0.32        1.95052
   O 006 --   Al 002               0.32        1.95052
   O 002 --   Al 004               0.32        1.95052
   O 007 --   Al 001               0.32        1.95407
   O 003 --   Al 003               0.32        1.95407
   O 008 --   Al 002               0.32        1.95407
   O 004 --   Al 004               0.32        1.95407
   O 008 --   Al 004               0.31        1.99215
   O 004 --   Al 002               0.31        1.99215
   O 007 --   Al 003               0.31        1.99215
   O 003 --   Al 001               0.31        1.99215
   O 006 --   Al 004               0.31        2.00040
   O 002 --   Al 002               0.31        2.00040
   O 001 --   Al 001               0.31        2.00040
   O 005 --   Al 003               0.31        2.00040
   O 001 --   Na 001              -0.01        2.34883
   O 005 --   Na 003              -0.01        2.34883
   O 006 --   Na 004              -0.01        2.34884
   O 002 --   Na 002              -0.01        2.34884
   O 007 --   Na 003              -0.01        2.35294
   O 003 --   Na 001              -0.01        2.35294
   O 008 --   Na 004              -0.01        2.35294
   O 004 --   Na 002              -0.01        2.35294
   O 022 --   Na 003              -0.04        2.36852
   O 018 --   Na 001              -0.04        2.36852
   O 021 --   Na 004              -0.04        2.36853
   O 017 --   Na 002              -0.04        2.36853
   O 020 --   Na 001              -0.04        2.37583
   O 024 --   Na 003              -0.04        2.37583
   O 023 --   Na 004              -0.04        2.37583
   O 019 --   Na 002              -0.04        2.37583
   O 013 --   Na 002              -0.05        2.41715
   O 009 --   Na 004              -0.05        2.41715
   O 014 --   Na 001              -0.05        2.41715
   O 010 --   Na 003              -0.05        2.41715
   O 011 --   Na 004              -0.05        2.42250
   O 015 --   Na 002              -0.05        2.42250
   O 012 --   Na 003              -0.05        2.42250
   O 016 --   Na 001              -0.05        2.42250
   O 003 --    O 007              -0.11        2.47012
   O 004 --    O 008              -0.11        2.47012
   O 001 --    O 005              -0.10        2.47784
   O 002 --    O 006              -0.10        2.47784
   O 011 --    O 021              -0.10        2.58213
   O 015 --    O 017              -0.10        2.58213
   O 016 --    O 018              -0.10        2.58213
   O 012 --    O 022              -0.10        2.58213
   O 013 --    O 019              -0.10        2.58240
   O 009 --    O 023              -0.10        2.58240
   O 010 --    O 024              -0.10        2.58240
   O 014 --    O 020              -0.10        2.58240
   O 018 --    O 024              -0.16        2.62970
   O 020 --    O 022              -0.16        2.62970
   O 019 --    O 021              -0.16        2.62970
   O 017 --    O 023              -0.16        2.62970
   O 005 --    O 021              -0.09        2.63632
   O 001 --    O 017              -0.09        2.63632
   O 002 --    O 018              -0.09        2.63632
   O 006 --    O 022              -0.09        2.63632
   O 003 --    O 019              -0.09        2.63901
   O 007 --    O 023              -0.09        2.63901
   O 004 --    O 020              -0.09        2.63901
   O 008 --    O 024              -0.09        2.63901
   O 001 --    O 023              -0.08        2.64422
   O 005 --    O 019              -0.08        2.64422
   O 002 --    O 024              -0.08        2.64422
   O 006 --    O 020              -0.08        2.64422
   O 003 --    O 021              -0.08        2.64633
   O 007 --    O 017              -0.08        2.64633
   O 004 --    O 022              -0.08        2.64633
   O 008 --    O 018              -0.08        2.64633
   O 011 --    O 019              -0.08        2.65209
   O 015 --    O 023              -0.08        2.65209
   O 012 --    O 020              -0.08        2.65209
   O 016 --    O 024              -0.08        2.65209
   O 014 --    O 022              -0.08        2.65227
   O 010 --    O 018              -0.08        2.65227
   O 013 --    O 021              -0.08        2.65227
   O 009 --    O 017              -0.08        2.65227
   O 003 --    O 016              -0.07        2.69557
   O 007 --    O 012              -0.07        2.69557
   O 008 --    O 011              -0.07        2.69557
   O 004 --    O 015              -0.07        2.69557
   O 001 --    O 014              -0.07        2.69587
   O 005 --    O 010              -0.07        2.69587
   O 002 --    O 013              -0.07        2.69587
   O 006 --    O 009              -0.07        2.69587
   O 006 --    O 015              -0.05        2.71305
   O 002 --    O 011              -0.05        2.71305
   O 005 --    O 016              -0.05        2.71305
   O 001 --    O 012              -0.05        2.71305
   O 004 --    O 009              -0.05        2.71475
   O 008 --    O 013              -0.05        2.71475
   O 007 --    O 014              -0.05        2.71475
   O 003 --    O 010              -0.05        2.71475
   O 005 --    O 007              -0.05        2.72553
   O 001 --    O 003              -0.05        2.72553
   O 006 --    O 008              -0.05        2.72553
   O 002 --    O 004              -0.05        2.72553
   O 023 --   Na 002              -0.02        2.73555
   O 019 --   Na 004              -0.02        2.73555
   O 024 --   Na 001              -0.02        2.73555
   O 020 --   Na 003              -0.02        2.73555
   O 021 --   Na 002              -0.02        2.74717
   O 017 --   Na 004              -0.02        2.74717
   O 018 --   Na 003              -0.02        2.74717
   O 022 --   Na 001              -0.02        2.74717
   O 008 --    O 016              -0.06        2.77085
   O 004 --    O 012              -0.06        2.77085
   O 003 --    O 011              -0.06        2.77085
   O 007 --    O 015              -0.06        2.77085
   O 018 --    O 022              -0.04        2.77773
   O 017 --    O 021              -0.04        2.77773
   O 002 --    O 010              -0.06        2.77828
   O 006 --    O 014              -0.06        2.77828
   O 005 --    O 013              -0.06        2.77828
   O 001 --    O 009              -0.06        2.77828
   O 020 --    O 024              -0.04        2.77844
   O 019 --    O 023              -0.04        2.77845
   O 009 --    O 011              -0.05        2.78969
   O 013 --    O 015              -0.05        2.78969
   O 010 --    O 012              -0.05        2.78969
   O 014 --    O 016              -0.05        2.78969
   O 005 --    O 012              -0.04        2.81389
   O 001 --    O 016              -0.04        2.81389
   O 006 --    O 011              -0.04        2.81389
   O 002 --    O 015              -0.04        2.81389
   O 007 --    O 010              -0.04        2.82570
   O 003 --    O 014              -0.04        2.82570
   O 008 --    O 009              -0.04        2.82570
   O 004 --    O 013              -0.04        2.82570
   O 014 --    O 017              -0.02        2.91192
   O 010 --    O 021              -0.02        2.91192
   O 009 --    O 022              -0.02        2.91192
   O 013 --    O 018              -0.02        2.91192
   O 016 --    O 019              -0.02        2.92060
   O 012 --    O 023              -0.02        2.92060
   O 015 --    O 020              -0.02        2.92060
   O 011 --    O 024              -0.02        2.92060
   O 002 --    O 008              -0.05        2.93592
   O 004 --    O 006              -0.05        2.93592
   O 003 --    O 005              -0.05        2.93592
   O 001 --    O 007              -0.05        2.93592
============================================================
 
 
Writing model to jadeite_4_30_GPa_cij__2__1.check
 
Writing analysis data to jadeite_4_30_GPa_cij__2__1.castep_bin
Initialisation time =      2.26 s
Calculation time    =   3091.18 s
Finalisation time   =      1.32 s
Total time          =   3094.76 s
Peak Memory Use     = 283752 kB
