 +-------------------------------------------------+
 |                                                 |
 |      CCC   AA    SSS  TTTTT  EEEEE  PPPP        |
 |     C     A  A  S       T    E      P   P       |
 |     C     AAAA   SS     T    EEE    PPPP        |
 |     C     A  A     S    T    E      P           |
 |      CCC  A  A  SSS     T    EEEEE  P           |
 |                                                 |
 +-------------------------------------------------+
 |                                                 |
 | Welcome to Academic Release CASTEP version 5.02 |
 | Ab Initio Total Energy Program                  |
 |                                                 |
 | Authors:                                        |
 | M. Segall, M. Probert, C. Pickard, P. Hasnip,   |
 | S. Clark, K. Refson, M. Payne                   |
 |                                                 |
 | Contributors:                                   |
 | P. Lindan, P. Haynes, J. White, V. Milman,      |
 | N. Govind, M. Gibson, P. Tulip, V. Cocula,      |
 | B. Montanari, D. Quigley, M. Glover,            |
 | L. Bernasconi, A. Perlov, M. Plummer            |
 |                                                 |
 | Copyright (c) 2000 - 2009                       |
 |                                                 |
 |     Distributed under the terms of an           |
 |     Agreement between the United Kingdom        |
 |     Car-Parrinello (UKCP) Consortium,           |
 |     Daresbury Laboratory and Accelrys, Inc.     |
 |                                                 |
 | Please cite                                     |
 |                                                 |
 |     "First principles methods using CASTEP"     |
 |                                                 |
 |         Zeitschrift fuer Kristallographie       |
 |           220(5-6) pp. 567-570 (2005)           |
 |                                                 |
 | S. J. Clark, M. D. Segall, C. J. Pickard,       |
 | P. J. Hasnip, M. J. Probert, K. Refson,         |
 | M. C. Payne                                     |
 |                                                 |
 |       in all publications arising from          |
 |              your use of CASTEP                 |
 |                                                 |
 +-------------------------------------------------+
 
 
 Pseudo atomic calculation performed for O 2s2 2p4
 
 Converged in 36 iterations to a total energy of -429.6485 eV
 
 
 Pseudo atomic calculation performed for Na 2s2 2p6 3s1
 
 Converged in 33 iterations to a total energy of -1302.8467 eV
 
 
 Pseudo atomic calculation performed for Al 3s2 3p1
 
 Converged in 20 iterations to a total energy of -52.7392 eV
 
 
 Pseudo atomic calculation performed for Si 3s2 3p2
 
 Converged in 21 iterations to a total energy of -101.9044 eV
 
Calculation parallelised over   36 nodes.
K-points are distributed over    6 groups, each containing    6 nodes.

 ************************************ Title ************************************
 

 ***************************** General Parameters ******************************
  
 output verbosity                               : normal  (1)
 write checkpoint data to                       : jadeite_4_30_GPa_cij__2__6.check
 type of calculation                            : geometry optimization
 stress calculation                             : on
 density difference calculation                 : off
 electron localisation func (ELF) calculation   : off
 Hirshfeld analysis                             : off
 unlimited duration calculation
 timing information                             : on
 memory usage estimate                          : on
 write final potential to formatted file        : off
 write final density to formatted file          : off
  
 output         length unit                     : A
 output           mass unit                     : amu
 output           time unit                     : ps
 output         charge unit                     : e
 output         energy unit                     : eV
 output          force unit                     : eV/A
 output       velocity unit                     : A/ps
 output       pressure unit                     : GPa
 output     inv_length unit                     : 1/A
 output      frequency unit                     : cm-1
 output force constant unit                     : eV/A**2
 output         volume unit                     : A**3
 output   IR intensity unit                     : (D/A)**2/amu
 output         dipole unit                     : D
 output         efield unit                     : eV/A/e
  
 wavefunctions paging                           : none
 data distribution                              : optimal for this architecture
 optimization strategy                          : maximize speed(+++)

 *********************** Exchange-Correlation Parameters ***********************
  
 using functional                               : Perdew Burke Ernzerhof
 Divergence correction                          : off
 DFT+D: Semi-empirical dispersion correction    : off

 ************************* Pseudopotential Parameters **************************
  
 pseudopotential representation                 : reciprocal space
 <beta|phi> representation                      : reciprocal space

 **************************** Basis Set Parameters *****************************
  
 plane wave basis set cut-off                   :   700.0000   eV
 finite basis set correction                    : none

 **************************** Electronic Parameters ****************************
  
 number of  electrons                           :  224.0    
 net charge of system                           :  0.000    
 net spin   of system                           :  0.000    
 number of  up  spins                           :  112.0    
 number of down spins                           :  112.0    
 treating system as non-spin-polarized
 number of bands                                :        112

 ********************* Electronic Minimization Parameters **********************
  
 Method: Treating system as non-metallic,
         and number of  SD  steps               :          1
         and number of  CG  steps               :          4
  
 total energy / atom convergence tol.           : 0.1000E-07   eV
 max force / atom convergence tol.              : ignored
 convergence tolerance window                   :          3   cycles
 max. number of SCF cycles                      :        100

 *********************** Population Analysis Parameters ************************
  
 Population analysis with cutoff                :  3.000       A

 ********************** Geometry Optimization Parameters ***********************
  
 optimization method                            : BFGS
 variable cell method                           : fixed basis quality
 max. number of steps                           :        300
 estimated bulk modulus                         :  500.0       GPa
 estimated <frequency>                          :  1668.       cm-1
 line minimiser tolerance                       :     0.4000
 total energy convergence tolerance             : 0.2000E-06   eV/atom
        max ionic |force| tolerance             : 0.1000E-02   eV/A
 max ionic |displacement| tolerance             : 0.1000E-02   A
   max |stress component| tolerance             : 0.1000E-02   GPa
 convergence tolerance window                   :          2   steps
 backup results every                           :          1   steps

 *******************************************************************************
  
 
                           -------------------------------
                                      Unit Cell
                           -------------------------------
        Real Lattice(A)                      Reciprocal Lattice(1/A)
   8.9813393  -0.1000000  -2.8290832        0.6995822   0.0000000   0.0000000
   0.0000000   8.5603493   0.0000000        0.0081724   0.7339870   0.0000000
   0.0000000   0.0000000   5.1199179        0.3865641   0.0000000   1.2272043
 
                       Lattice parameters(A)       Cell Angles
                    a =    9.416909          alpha =   90.000000
                    b =    8.560349          beta  =  107.483185
                    c =    5.119918          gamma =   90.608447
 
                       Current cell volume =  393.636703       A**3
 
                           -------------------------------
                                     Cell Contents
                           -------------------------------
                         Total number of ions in cell =   40
                      Total number of species in cell =    4
                        Max number of any one species =   24
 
            xxxxxxxxxxxxxxxxxxxxxxxxxxxxxxxxxxxxxxxxxxxxxxxxxxxxxxxxxxxx
            x  Element    Atom        Fractional coordinates of atoms  x
            x            Number           u          v          w      x
            x----------------------------------------------------------x
            x  O            1         0.109277   0.076953   0.129205   x
            x  O            2         0.609279   0.576952   0.129208   x
            x  O            3         0.890723   0.076953   0.370795   x
            x  O            4         0.390721   0.576952   0.370792   x
            x  O            5         0.890723   0.923047   0.870795   x
            x  O            6         0.390721   0.423048   0.870792   x
            x  O            7         0.109277   0.923047   0.629205   x
            x  O            8         0.609279   0.423048   0.629208   x
            x  O            9         0.361047   0.263746   0.295383   x
            x  O           10         0.861046   0.763747   0.295382   x
            x  O           11         0.638953   0.263746   0.204617   x
            x  O           12         0.138954   0.763747   0.204618   x
            x  O           13         0.638953   0.736254   0.704617   x
            x  O           14         0.138954   0.236253   0.704618   x
            x  O           15         0.361047   0.736254   0.795383   x
            x  O           16         0.861046   0.236253   0.795382   x
            x  O           17         0.354029   0.008469   1.005059   x
            x  O           18         0.854032   0.508466   1.005069   x
            x  O           19         0.645971   0.008469   0.494941   x
            x  O           20         0.145968   0.508466   0.494931   x
            x  O           21         0.645971   0.991530  -0.005059   x
            x  O           22         0.145968   0.491534  -0.005069   x
            x  O           23         0.354029   0.991530   0.505059   x
            x  O           24         0.854032   0.491534   0.505069   x
            x  Na           1         0.000000   0.301230   0.250000   x
            x  Na           2         0.500000   0.801235   0.250000   x
            x  Na           3         0.000000   0.698770   0.750000   x
            x  Na           4         0.500000   0.198765   0.750000   x
            x  Al           1         0.000000   0.906276   0.250000   x
            x  Al           2         0.500000   0.406277   0.250000   x
            x  Al           3         0.000000   0.093724   0.750000   x
            x  Al           4         0.500000   0.593723   0.750000   x
            x  Si           1         0.290869   0.093825   0.228100   x
            x  Si           2         0.790871   0.593824   0.228106   x
            x  Si           3         0.709131   0.093825   0.271900   x
            x  Si           4         0.209129   0.593824   0.271894   x
            x  Si           5         0.709131   0.906176   0.771900   x
            x  Si           6         0.209129   0.406176   0.771894   x
            x  Si           7         0.290869   0.906176   0.728100   x
            x  Si           8         0.790871   0.406176   0.728106   x
            xxxxxxxxxxxxxxxxxxxxxxxxxxxxxxxxxxxxxxxxxxxxxxxxxxxxxxxxxxxx
 
 
                         No user defined ionic velocities
 
                           -------------------------------
                                   Details of Species
                           -------------------------------
 
                               Mass of species in AMU
                                    O   15.9994000
                                    Na   22.9897700
                                    Al   26.9815400
                                    Si   28.0855000
 
                          Electric Quadrupole Moment (Barn)
                                    O   -0.0255800 Isotope 17
                                    Na    0.1040000 Isotope 23
                                    Al    0.1466000 Isotope 27
                                    Si    1.0000000 No Isotope Defined
 
                          Files used for pseudopotentials:
                                    O O_00PBE.usp
                                    Na Na_00PBE.usp
                                    Al Al_00PBE.usp
                                    Si Si_00PBE.usp
 
                           -------------------------------
                              k-Points For BZ Sampling
                           -------------------------------
                       MP grid size for SCF calculation is  2  2  3
                         Number of kpoints used = 6
 
             +++++++++++++++++++++++++++++++++++++++++++++++++++++++
             +  Number       Fractional coordinates        Weight  +
             +-----------------------------------------------------+
             +     1  -0.250000   0.250000   0.333333   0.1666667  +
             +     2  -0.250000   0.250000   0.000000   0.1666667  +
             +     3   0.250000  -0.250000   0.333333   0.1666667  +
             +     4  -0.250000  -0.250000   0.333333   0.1666667  +
             +     5   0.250000   0.250000   0.000000   0.1666667  +
             +     6   0.250000   0.250000   0.333333   0.1666667  +
             +++++++++++++++++++++++++++++++++++++++++++++++++++++++
 
                           -------------------------------
                               Symmetry and Constraints
                           -------------------------------
 
                      Number of symmetry operations   = 2
                      Number of ionic constraints     = 3
                      Maximum deviation from symmetry = 0.997129E-15     ANG
               Point group of crystal =     2: Ci, -1, -1
           Set iprint > 1 for details on symmetry rotations/translations
 
                          Centre of mass is constrained
             Set iprint > 1 for details of linear ionic constraints
 
                         Number of cell constraints= 6
                         Cell constraints are:  0 0 0 0 0 0
 
                         External pressure/stress (GPa)
                          4.30000   0.00000   0.00000
                                    4.30000   0.00000
                                              4.30000
  
+---------------- MEMORY AND SCRATCH DISK ESTIMATES PER NODE -----------------+
|                                                     Memory          Disk    |
| Model and support data                               91.2 MB         0.0 MB |
| Electronic energy minimisation requirements          32.0 MB         0.0 MB |
|                                               ----------------------------- |
| Approx. total storage required per node             123.2 MB         0.0 MB |
|                                                                             |
| Requirements will fluctuate during execution and may exceed these estimates |
+-----------------------------------------------------------------------------+
------------------------------------------------------------------------ <-- SCF
SCF loop      Energy                           Energy gain       Timer   <-- SCF
                                               per atom          (sec)   <-- SCF
------------------------------------------------------------------------ <-- SCF
Initial  -1.74776520E+003                                          6.62  <-- SCF
      1  -1.63843219E+004                    3.65913917E+002      25.76  <-- SCF
      2  -1.68139699E+004                    1.07411991E+001      43.94  <-- SCF
      3  -1.68426596E+004                    7.17244011E-001      62.14  <-- SCF
      4  -1.68456655E+004                    7.51470263E-002      80.10  <-- SCF
      5  -1.68456936E+004                    7.02979431E-004      98.16  <-- SCF
      6  -1.68456940E+004                    1.05287362E-005     116.23  <-- SCF
      7  -1.68456940E+004                    2.69637422E-007     134.27  <-- SCF
      8  -1.68456940E+004                    7.79681760E-009     152.78  <-- SCF
      9  -1.68456940E+004                    2.35498493E-010     170.98  <-- SCF
------------------------------------------------------------------------ <-- SCF
 
Final energy =  -16845.69404729     eV
(energy not corrected for finite basis set)
 
 
Writing model to jadeite_4_30_GPa_cij__2__6.check
 
+---------------- MEMORY AND SCRATCH DISK ESTIMATES PER NODE -----------------+
|                                                     Memory          Disk    |
| Model and support data                               84.3 MB         0.0 MB |
| Geometry minimisation requirements                   37.2 MB         0.0 MB |
|                                               ----------------------------- |
| Approx. total storage required per node             121.5 MB         0.0 MB |
|                                                                             |
| Requirements will fluctuate during execution and may exceed these estimates |
+-----------------------------------------------------------------------------+
 
 
 *********************************** Forces ***********************************
 *                                                                            *
 *                        Cartesian components (eV/A)                         *
 * -------------------------------------------------------------------------- *
 *                   x                    y                    z              *
 *                                                                            *
 * O         1      0.09982              0.00456              0.12040         *
 * O         2      0.09966              0.00462              0.12033         *
 * O         3     -0.06967              0.00303             -0.08331         *
 * O         4     -0.06951              0.00310             -0.08325         *
 * O         5     -0.09982             -0.00456             -0.12040         *
 * O         6     -0.09966             -0.00462             -0.12033         *
 * O         7      0.06967             -0.00303              0.08331         *
 * O         8      0.06951             -0.00310              0.08325         *
 * O         9     -0.01269              0.11960              0.08951         *
 * O        10     -0.01256              0.11967              0.08950         *
 * O        11      0.10541             -0.14329             -0.04768         *
 * O        12      0.10527             -0.14322             -0.04768         *
 * O        13      0.01269             -0.11960             -0.08951         *
 * O        14      0.01256             -0.11967             -0.08950         *
 * O        15     -0.10541              0.14329              0.04768         *
 * O        16     -0.10527              0.14322              0.04768         *
 * O        17      0.30196              0.16851              0.13080         *
 * O        18      0.30192              0.16859              0.13081         *
 * O        19     -0.28840             -0.04531              0.15335         *
 * O        20     -0.28836             -0.04524              0.15336         *
 * O        21     -0.30196             -0.16851             -0.13080         *
 * O        22     -0.30192             -0.16859             -0.13081         *
 * O        23      0.28840              0.04531             -0.15335         *
 * O        24      0.28836              0.04524             -0.15336         *
 * Na        1     -0.01905              0.00765             -0.02415         *
 * Na        2     -0.01906              0.00754             -0.02414         *
 * Na        3      0.01905             -0.00765              0.02415         *
 * Na        4      0.01906             -0.00754              0.02414         *
 * Al        1      0.06994             -0.03195             -0.00454         *
 * Al        2      0.06994             -0.03185             -0.00454         *
 * Al        3     -0.06994              0.03195              0.00454         *
 * Al        4     -0.06994              0.03185              0.00454         *
 * Si        1     -0.29300              0.23065             -0.03589         *
 * Si        2     -0.29321              0.23070             -0.03594         *
 * Si        3      0.33534              0.72748              0.01234         *
 * Si        4      0.33556              0.72752              0.01239         *
 * Si        5      0.29300             -0.23065              0.03589         *
 * Si        6      0.29321             -0.23070              0.03594         *
 * Si        7     -0.33534             -0.72748             -0.01234         *
 * Si        8     -0.33556             -0.72752             -0.01239         *
 *                                                                            *
 ******************************************************************************
 BFGS: finished iteration     0 with enthalpy= -1.68351294E+004 eV
  
 +-----------+-----------------+-----------------+------------+-----+ <-- BFGS
 | Parameter |      value      |    tolerance    |    units   | OK? | <-- BFGS
 +-----------+-----------------+-----------------+------------+-----+ <-- BFGS
 |  dE/ion   |   0.000000E+000 |   2.000000E-007 |         eV | No  | <-- BFGS
 |  |F|max   |   8.012720E-001 |   1.000000E-003 |       eV/A | No  | <-- BFGS
 |  |dR|max  |   0.000000E+000 |   1.000000E-003 |          A | No  | <-- BFGS
 +-----------+-----------------+-----------------+------------+-----+ <-- BFGS
  

================================================================================
 Starting BFGS iteration          1 ...
================================================================================
 
Writing model to jadeite_4_30_GPa_cij__2__6.check
  
 +------------+-------------+-------------+-----------------+ <-- min BFGS
 |    Step    |   lambda    |   F.delta   |    enthalpy     | <-- min BFGS
 +------------+-------------+-------------+-----------------+ <-- min BFGS
 |  previous  |    0.000000 |    0.000801 |   -16835.129432 | <-- min BFGS
 +------------+-------------+-------------+-----------------+ <-- min BFGS
  

--------------------------------------------------------------------------------
 BFGS: starting iteration         1 with trial guess (lambda=  1.000000)
--------------------------------------------------------------------------------
 
                           -------------------------------
                                     Cell Contents
                           -------------------------------
 
            xxxxxxxxxxxxxxxxxxxxxxxxxxxxxxxxxxxxxxxxxxxxxxxxxxxxxxxxxxxx
            x  Element    Atom        Fractional coordinates of atoms  x
            x            Number           u          v          w      x
            x----------------------------------------------------------x
            x  O            1         0.109331   0.076956   0.129348   x
            x  O            2         0.609333   0.576955   0.129351   x
            x  O            3         0.890685   0.076954   0.370696   x
            x  O            4         0.390684   0.576953   0.370693   x
            x  O            5         0.890669   0.923044   0.870652   x
            x  O            6         0.390667   0.423045   0.870649   x
            x  O            7         0.109315   0.923046   0.629304   x
            x  O            8         0.609316   0.423047   0.629307   x
            x  O            9         0.361040   0.263814   0.295464   x
            x  O           10         0.861039   0.763815   0.295463   x
            x  O           11         0.639010   0.263666   0.204603   x
            x  O           12         0.139011   0.763667   0.204604   x
            x  O           13         0.638960   0.736186   0.704536   x
            x  O           14         0.138961   0.236185   0.704537   x
            x  O           15         0.360990   0.736334   0.795397   x
            x  O           16         0.860989   0.236333   0.795396   x
            x  O           17         0.354192   0.008567   1.005272   x
            x  O           18         0.854195   0.508563   1.005282   x
            x  O           19         0.645816   0.008442   0.495000   x
            x  O           20         0.145813   0.508439   0.494990   x
            x  O           21         0.645808   0.991433  -0.005272   x
            x  O           22         0.145805   0.491437  -0.005282   x
            x  O           23         0.354184   0.991558   0.505000   x
            x  O           24         0.854187   0.491561   0.505010   x
            x  Na           1        -0.000010   0.301234   0.249972   x
            x  Na           2         0.499990   0.801239   0.249972   x
            x  Na           3         0.000010   0.698766   0.750028   x
            x  Na           4         0.500010   0.198761   0.750028   x
            x  Al           1         0.000038   0.906259   0.250017   x
            x  Al           2         0.500038   0.406259   0.250017   x
            x  Al           3        -0.000038   0.093741   0.749983   x
            x  Al           4         0.499962   0.593741   0.749983   x
            x  Si           1         0.290711   0.093953   0.227979   x
            x  Si           2         0.790713   0.593952   0.227985   x
            x  Si           3         0.709312   0.094238   0.272011   x
            x  Si           4         0.209310   0.594237   0.272006   x
            x  Si           5         0.709289   0.906047   0.772021   x
            x  Si           6         0.209287   0.406048   0.772015   x
            x  Si           7         0.290688   0.905762   0.727989   x
            x  Si           8         0.790690   0.405763   0.727994   x
            xxxxxxxxxxxxxxxxxxxxxxxxxxxxxxxxxxxxxxxxxxxxxxxxxxxxxxxxxxxx
 
 
------------------------------------------------------------------------ <-- SCF
SCF loop      Energy                           Energy gain       Timer   <-- SCF
                                               per atom          (sec)   <-- SCF
------------------------------------------------------------------------ <-- SCF
Initial  -1.68456842E+004                                        182.65  <-- SCF
      1  -1.68457125E+004                    7.08497148E-004     201.13  <-- SCF
      2  -1.68457125E+004                    3.77945229E-007     219.50  <-- SCF
      3  -1.68457125E+004                    4.92945910E-009     239.42  <-- SCF
      4  -1.68457125E+004                    9.51274702E-011     258.48  <-- SCF
------------------------------------------------------------------------ <-- SCF
 
Final energy =  -16845.71252435     eV
(energy not corrected for finite basis set)
 
 
 *********************************** Forces ***********************************
 *                                                                            *
 *                        Cartesian components (eV/A)                         *
 * -------------------------------------------------------------------------- *
 *                   x                    y                    z              *
 *                                                                            *
 * O         1      0.03441             -0.00069              0.11196         *
 * O         2      0.03424             -0.00063              0.11190         *
 * O         3     -0.02570              0.01307             -0.07518         *
 * O         4     -0.02553              0.01313             -0.07512         *
 * O         5     -0.03441              0.00069             -0.11196         *
 * O         6     -0.03424              0.00063             -0.11190         *
 * O         7      0.02570             -0.01307              0.07518         *
 * O         8      0.02553             -0.01313              0.07512         *
 * O         9     -0.00960              0.13466              0.08214         *
 * O        10     -0.00951              0.13469              0.08214         *
 * O        11      0.07156             -0.03747             -0.04913         *
 * O        12      0.07146             -0.03743             -0.04913         *
 * O        13      0.00960             -0.13466             -0.08214         *
 * O        14      0.00951             -0.13469             -0.08214         *
 * O        15     -0.07156              0.03747              0.04913         *
 * O        16     -0.07146              0.03743              0.04913         *
 * O        17      0.24124              0.11543              0.05837         *
 * O        18      0.24117              0.11550              0.05836         *
 * O        19     -0.22469             -0.00581              0.08858         *
 * O        20     -0.22462             -0.00575              0.08860         *
 * O        21     -0.24124             -0.11543             -0.05837         *
 * O        22     -0.24117             -0.11550             -0.05836         *
 * O        23      0.22469              0.00581             -0.08858         *
 * O        24      0.22462              0.00575             -0.08860         *
 * Na        1     -0.01208              0.02548             -0.02199         *
 * Na        2     -0.01208              0.02537             -0.02198         *
 * Na        3      0.01208             -0.02548              0.02199         *
 * Na        4      0.01208             -0.02537              0.02198         *
 * Al        1      0.05636             -0.03519             -0.00377         *
 * Al        2      0.05636             -0.03511             -0.00377         *
 * Al        3     -0.05636              0.03519              0.00377         *
 * Al        4     -0.05636              0.03511              0.00377         *
 * Si        1     -0.19526              0.18589             -0.02626         *
 * Si        2     -0.19543              0.18595             -0.02629         *
 * Si        3      0.23493              0.48727              0.01636         *
 * Si        4      0.23511              0.48732              0.01640         *
 * Si        5      0.19526             -0.18589              0.02626         *
 * Si        6      0.19543             -0.18595              0.02629         *
 * Si        7     -0.23493             -0.48727             -0.01636         *
 * Si        8     -0.23511             -0.48732             -0.01640         *
 *                                                                            *
 ******************************************************************************
  
 +------------+-------------+-------------+-----------------+ <-- min BFGS
 |    Step    |   lambda    |   F.delta   |    enthalpy     | <-- min BFGS
 +------------+-------------+-------------+-----------------+ <-- min BFGS
 |  previous  |    0.000000 |    0.000801 |   -16835.129432 | <-- min BFGS
 | trial step |    1.000000 |    0.000557 |   -16835.147909 | <-- min BFGS
 +------------+-------------+-------------+-----------------+ <-- min BFGS
  

--------------------------------------------------------------------------------
 BFGS: improving iteration         1 with line minimization (lambda=  3.274342)
--------------------------------------------------------------------------------
 
                           -------------------------------
                                     Cell Contents
                           -------------------------------
 
            xxxxxxxxxxxxxxxxxxxxxxxxxxxxxxxxxxxxxxxxxxxxxxxxxxxxxxxxxxxx
            x  Element    Atom        Fractional coordinates of atoms  x
            x            Number           u          v          w      x
            x----------------------------------------------------------x
            x  O            1         0.109453   0.076963   0.129675   x
            x  O            2         0.609455   0.576962   0.129677   x
            x  O            3         0.890600   0.076957   0.370469   x
            x  O            4         0.390598   0.576956   0.370467   x
            x  O            5         0.890547   0.923037   0.870325   x
            x  O            6         0.390545   0.423038   0.870323   x
            x  O            7         0.109400   0.923043   0.629531   x
            x  O            8         0.609402   0.423044   0.629533   x
            x  O            9         0.361025   0.263967   0.295647   x
            x  O           10         0.861024   0.763968   0.295647   x
            x  O           11         0.639139   0.263484   0.204572   x
            x  O           12         0.139140   0.763484   0.204573   x
            x  O           13         0.638975   0.736033   0.704353   x
            x  O           14         0.138976   0.236032   0.704353   x
            x  O           15         0.360861   0.736516   0.795428   x
            x  O           16         0.860860   0.236516   0.795427   x
            x  O           17         0.354561   0.008787   1.005758   x
            x  O           18         0.854564   0.508784   1.005768   x
            x  O           19         0.645463   0.008380   0.495134   x
            x  O           20         0.145460   0.508376   0.495124   x
            x  O           21         0.645439   0.991213  -0.005758   x
            x  O           22         0.145436   0.491216  -0.005768   x
            x  O           23         0.354537   0.991620   0.504866   x
            x  O           24         0.854540   0.491624   0.504876   x
            x  Na           1        -0.000034   0.301244   0.249907   x
            x  Na           2         0.499966   0.801248   0.249907   x
            x  Na           3         0.000034   0.698756   0.750093   x
            x  Na           4         0.500034   0.198752   0.750093   x
            x  Al           1         0.000123   0.906219   0.250054   x
            x  Al           2         0.500123   0.406219   0.250054   x
            x  Al           3        -0.000123   0.093781   0.749946   x
            x  Al           4         0.499877   0.593781   0.749946   x
            x  Si           1         0.290352   0.094245   0.227704   x
            x  Si           2         0.790354   0.594244   0.227709   x
            x  Si           3         0.709722   0.095177   0.272265   x
            x  Si           4         0.209721   0.595176   0.272259   x
            x  Si           5         0.709648   0.905755   0.772296   x
            x  Si           6         0.209646   0.405756   0.772291   x
            x  Si           7         0.290278   0.904823   0.727735   x
            x  Si           8         0.790279   0.404824   0.727741   x
            xxxxxxxxxxxxxxxxxxxxxxxxxxxxxxxxxxxxxxxxxxxxxxxxxxxxxxxxxxxx
 
 
------------------------------------------------------------------------ <-- SCF
SCF loop      Energy                           Energy gain       Timer   <-- SCF
                                               per atom          (sec)   <-- SCF
------------------------------------------------------------------------ <-- SCF
Initial  -1.68455753E+004                                        266.57  <-- SCF
      1  -1.68457297E+004                    3.86184530E-003     284.99  <-- SCF
      2  -1.68457298E+004                    2.12780839E-006     303.46  <-- SCF
      3  -1.68457298E+004                    2.77153498E-008     322.41  <-- SCF
      4  -1.68457298E+004                    5.31244384E-010     340.53  <-- SCF
      5  -1.68457298E+004                    1.14462322E-011     360.97  <-- SCF
------------------------------------------------------------------------ <-- SCF
 
Final energy =  -16845.72981265     eV
(energy not corrected for finite basis set)
 
 
 *********************************** Forces ***********************************
 *                                                                            *
 *                        Cartesian components (eV/A)                         *
 * -------------------------------------------------------------------------- *
 *                   x                    y                    z              *
 *                                                                            *
 * O         1     -0.11603             -0.01296              0.09310         *
 * O         2     -0.11619             -0.01291              0.09305         *
 * O         3      0.07490              0.03543             -0.05686         *
 * O         4      0.07507              0.03548             -0.05681         *
 * O         5      0.11603              0.01296             -0.09310         *
 * O         6      0.11619              0.01291             -0.09305         *
 * O         7     -0.07490             -0.03543              0.05686         *
 * O         8     -0.07507             -0.03548              0.05681         *
 * O         9     -0.00256              0.16877              0.06547         *
 * O        10     -0.00253              0.16872              0.06547         *
 * O        11     -0.00966              0.20987             -0.05343         *
 * O        12     -0.00970              0.20983             -0.05343         *
 * O        13      0.00256             -0.16877             -0.06547         *
 * O        14      0.00253             -0.16872             -0.06547         *
 * O        15      0.00966             -0.20987              0.05343         *
 * O        16      0.00970             -0.20983              0.05343         *
 * O        17      0.10522             -0.00119             -0.09886         *
 * O        18      0.10510             -0.00115             -0.09891         *
 * O        19     -0.08107              0.08223             -0.05338         *
 * O        20     -0.08096              0.08228             -0.05334         *
 * O        21     -0.10522              0.00119              0.09886         *
 * O        22     -0.10510              0.00115              0.09891         *
 * O        23      0.08107             -0.08223              0.05338         *
 * O        24      0.08096             -0.08228              0.05334         *
 * Na        1      0.00373              0.06590             -0.01714         *
 * Na        2      0.00372              0.06579             -0.01713         *
 * Na        3     -0.00373             -0.06590              0.01714         *
 * Na        4     -0.00372             -0.06579              0.01713         *
 * Al        1      0.02554             -0.04235             -0.00190         *
 * Al        2      0.02554             -0.04232             -0.00189         *
 * Al        3     -0.02554              0.04235              0.00190         *
 * Al        4     -0.02554              0.04232              0.00189         *
 * Si        1      0.02899              0.08427             -0.00521         *
 * Si        2      0.02893              0.08436             -0.00521         *
 * Si        3      0.01398             -0.05931              0.02872         *
 * Si        4      0.01403             -0.05923              0.02871         *
 * Si        5     -0.02899             -0.08427              0.00521         *
 * Si        6     -0.02893             -0.08436              0.00521         *
 * Si        7     -0.01398              0.05931             -0.02872         *
 * Si        8     -0.01403              0.05923             -0.02871         *
 *                                                                            *
 ******************************************************************************
  
 +------------+-------------+-------------+-----------------+ <-- min BFGS
 |    Step    |   lambda    |   F.delta   |    enthalpy     | <-- min BFGS
 +------------+-------------+-------------+-----------------+ <-- min BFGS
 |  previous  |    0.000000 |    0.000801 |   -16835.129432 | <-- min BFGS
 | trial step |    1.000000 |    0.000557 |   -16835.147909 | <-- min BFGS
 |  line step |    3.274342 |    0.000003 |   -16835.165198 | <-- min BFGS
 +------------+-------------+-------------+-----------------+ <-- min BFGS
  
 BFGS: finished iteration     1 with enthalpy= -1.68351652E+004 eV
  
 +-----------+-----------------+-----------------+------------+-----+ <-- BFGS
 | Parameter |      value      |    tolerance    |    units   | OK? | <-- BFGS
 +-----------+-----------------+-----------------+------------+-----+ <-- BFGS
 |  dE/ion   |   8.941340E-004 |   2.000000E-007 |         eV | No  | <-- BFGS
 |  |F|max   |   2.167765E-001 |   1.000000E-003 |       eV/A | No  | <-- BFGS
 |  |dR|max  |   1.268867E-002 |   1.000000E-003 |          A | No  | <-- BFGS
 +-----------+-----------------+-----------------+------------+-----+ <-- BFGS
  

================================================================================
 Starting BFGS iteration          2 ...
================================================================================
 
Writing model to jadeite_4_30_GPa_cij__2__6.check
  
 +------------+-------------+-------------+-----------------+ <-- min BFGS
 |    Step    |   lambda    |   F.delta   |    enthalpy     | <-- min BFGS
 +------------+-------------+-------------+-----------------+ <-- min BFGS
 |  previous  |    0.000000 |    0.000121 |   -16835.165198 | <-- min BFGS
 +------------+-------------+-------------+-----------------+ <-- min BFGS
  

--------------------------------------------------------------------------------
 BFGS: starting iteration         2 with trial guess (lambda=  1.000000)
--------------------------------------------------------------------------------
 
                           -------------------------------
                                     Cell Contents
                           -------------------------------
 
            xxxxxxxxxxxxxxxxxxxxxxxxxxxxxxxxxxxxxxxxxxxxxxxxxxxxxxxxxxxx
            x  Element    Atom        Fractional coordinates of atoms  x
            x            Number           u          v          w      x
            x----------------------------------------------------------x
            x  O            1         0.109399   0.076956   0.129751   x
            x  O            2         0.609400   0.576955   0.129754   x
            x  O            3         0.890635   0.076978   0.370422   x
            x  O            4         0.390633   0.576977   0.370420   x
            x  O            5         0.890601   0.923044   0.870249   x
            x  O            6         0.390600   0.423045   0.870246   x
            x  O            7         0.109365   0.923022   0.629578   x
            x  O            8         0.609367   0.423023   0.629580   x
            x  O            9         0.361022   0.264074   0.295722   x
            x  O           10         0.861021   0.764074   0.295721   x
            x  O           11         0.639143   0.263590   0.204517   x
            x  O           12         0.139143   0.763590   0.204517   x
            x  O           13         0.638978   0.735926   0.704278   x
            x  O           14         0.138979   0.235926   0.704279   x
            x  O           15         0.360857   0.736410   0.795483   x
            x  O           16         0.860857   0.236410   0.795483   x
            x  O           17         0.354644   0.008803   1.005729   x
            x  O           18         0.854647   0.508800   1.005739   x
            x  O           19         0.645394   0.008421   0.495069   x
            x  O           20         0.145391   0.508418   0.495059   x
            x  O           21         0.645356   0.991197  -0.005729   x
            x  O           22         0.145353   0.491200  -0.005739   x
            x  O           23         0.354606   0.991579   0.504931   x
            x  O           24         0.854609   0.491582   0.504941   x
            x  Na           1        -0.000033   0.301282   0.249887   x
            x  Na           2         0.499967   0.801286   0.249887   x
            x  Na           3         0.000033   0.698718   0.750113   x
            x  Na           4         0.500033   0.198714   0.750113   x
            x  Al           1         0.000143   0.906192   0.250063   x
            x  Al           2         0.500143   0.406192   0.250063   x
            x  Al           3        -0.000143   0.093808   0.749937   x
            x  Al           4         0.499857   0.593808   0.749937   x
            x  Si           1         0.290343   0.094313   0.227688   x
            x  Si           2         0.790345   0.594313   0.227694   x
            x  Si           3         0.709758   0.095209   0.272314   x
            x  Si           4         0.209757   0.595208   0.272308   x
            x  Si           5         0.709657   0.905687   0.772312   x
            x  Si           6         0.209655   0.405687   0.772306   x
            x  Si           7         0.290242   0.904791   0.727686   x
            x  Si           8         0.790243   0.404792   0.727692   x
            xxxxxxxxxxxxxxxxxxxxxxxxxxxxxxxxxxxxxxxxxxxxxxxxxxxxxxxxxxxx
 
 
------------------------------------------------------------------------ <-- SCF
SCF loop      Energy                           Energy gain       Timer   <-- SCF
                                               per atom          (sec)   <-- SCF
------------------------------------------------------------------------ <-- SCF
Initial  -1.68457223E+004                                        370.21  <-- SCF
      1  -1.68457329E+004                    2.63398882E-004     388.36  <-- SCF
      2  -1.68457329E+004                    9.71039561E-008     406.45  <-- SCF
      3  -1.68457329E+004                    7.59318295E-010     424.96  <-- SCF
      4  -1.68457329E+004                    1.57772390E-011     445.53  <-- SCF
------------------------------------------------------------------------ <-- SCF
 
Final energy =  -16845.73286919     eV
(energy not corrected for finite basis set)
 
 
 *********************************** Forces ***********************************
 *                                                                            *
 *                        Cartesian components (eV/A)                         *
 * -------------------------------------------------------------------------- *
 *                   x                    y                    z              *
 *                                                                            *
 * O         1     -0.09298             -0.00561              0.08710         *
 * O         2     -0.09312             -0.00556              0.08705         *
 * O         3      0.06679              0.03727             -0.05432         *
 * O         4      0.06693              0.03733             -0.05428         *
 * O         5      0.09298              0.00561             -0.08710         *
 * O         6      0.09312              0.00556             -0.08705         *
 * O         7     -0.06679             -0.03727              0.05432         *
 * O         8     -0.06693             -0.03733              0.05428         *
 * O         9     -0.01338              0.14813              0.06256         *
 * O        10     -0.01334              0.14810              0.06256         *
 * O        11      0.00424              0.18161             -0.05075         *
 * O        12      0.00420              0.18157             -0.05076         *
 * O        13      0.01338             -0.14813             -0.06256         *
 * O        14      0.01334             -0.14810             -0.06256         *
 * O        15     -0.00424             -0.18161              0.05075         *
 * O        16     -0.00420             -0.18157              0.05076         *
 * O        17      0.08746              0.00665             -0.08351         *
 * O        18      0.08735              0.00668             -0.08356         *
 * O        19     -0.06789              0.06920             -0.03455         *
 * O        20     -0.06777              0.06924             -0.03450         *
 * O        21     -0.08746             -0.00665              0.08351         *
 * O        22     -0.08735             -0.00668              0.08356         *
 * O        23      0.06789             -0.06920              0.03455         *
 * O        24      0.06777             -0.06924              0.03450         *
 * Na        1      0.00299              0.06613             -0.01748         *
 * Na        2      0.00299              0.06603             -0.01747         *
 * Na        3     -0.00299             -0.06613              0.01748         *
 * Na        4     -0.00299             -0.06603              0.01747         *
 * Al        1      0.02567             -0.03280             -0.00309         *
 * Al        2      0.02567             -0.03278             -0.00309         *
 * Al        3     -0.02567              0.03280              0.00309         *
 * Al        4     -0.02567              0.03278              0.00309         *
 * Si        1      0.03616              0.06291             -0.00354         *
 * Si        2      0.03609              0.06298             -0.00355         *
 * Si        3     -0.00026             -0.05002              0.01972         *
 * Si        4     -0.00020             -0.04996              0.01972         *
 * Si        5     -0.03616             -0.06291              0.00354         *
 * Si        6     -0.03609             -0.06298              0.00355         *
 * Si        7      0.00026              0.05002             -0.01972         *
 * Si        8      0.00020              0.04996             -0.01972         *
 *                                                                            *
 ******************************************************************************
  
 +------------+-------------+-------------+-----------------+ <-- min BFGS
 |    Step    |   lambda    |   F.delta   |    enthalpy     | <-- min BFGS
 +------------+-------------+-------------+-----------------+ <-- min BFGS
 |  previous  |    0.000000 |    0.000121 |   -16835.165198 | <-- min BFGS
 | trial step |    1.000000 |    0.000104 |   -16835.168254 | <-- min BFGS
 +------------+-------------+-------------+-----------------+ <-- min BFGS
  

--------------------------------------------------------------------------------
 BFGS: improving iteration         2 with line minimization (lambda=  7.092401)
--------------------------------------------------------------------------------
 
                           -------------------------------
                                     Cell Contents
                           -------------------------------
 
            xxxxxxxxxxxxxxxxxxxxxxxxxxxxxxxxxxxxxxxxxxxxxxxxxxxxxxxxxxxx
            x  Element    Atom        Fractional coordinates of atoms  x
            x            Number           u          v          w      x
            x----------------------------------------------------------x
            x  O            1         0.109069   0.076910   0.130216   x
            x  O            2         0.609070   0.576909   0.130218   x
            x  O            3         0.890845   0.077104   0.370134   x
            x  O            4         0.390844   0.577103   0.370132   x
            x  O            5         0.890931   0.923090   0.869784   x
            x  O            6         0.390930   0.423091   0.869782   x
            x  O            7         0.109155   0.922896   0.629866   x
            x  O            8         0.609156   0.422897   0.629868   x
            x  O            9         0.361007   0.264722   0.296173   x
            x  O           10         0.861007   0.764722   0.296172   x
            x  O           11         0.639166   0.264237   0.204177   x
            x  O           12         0.139166   0.764237   0.204178   x
            x  O           13         0.638993   0.735278   0.703827   x
            x  O           14         0.138993   0.235278   0.703828   x
            x  O           15         0.360834   0.735763   0.795823   x
            x  O           16         0.860834   0.235763   0.795822   x
            x  O           17         0.355148   0.008897   1.005556   x
            x  O           18         0.855150   0.508893   1.005565   x
            x  O           19         0.644977   0.008676   0.494670   x
            x  O           20         0.144975   0.508673   0.494661   x
            x  O           21         0.644852   0.991103  -0.005556   x
            x  O           22         0.144850   0.491107  -0.005565   x
            x  O           23         0.355023   0.991324   0.505330   x
            x  O           24         0.855025   0.491327   0.505339   x
            x  Na           1        -0.000031   0.301514   0.249767   x
            x  Na           2         0.499969   0.801517   0.249767   x
            x  Na           3         0.000031   0.698486   0.750233   x
            x  Na           4         0.500031   0.198483   0.750233   x
            x  Al           1         0.000264   0.906030   0.250114   x
            x  Al           2         0.500264   0.406030   0.250114   x
            x  Al           3        -0.000264   0.093970   0.749886   x
            x  Al           4         0.499736   0.593970   0.749886   x
            x  Si           1         0.290286   0.094730   0.227594   x
            x  Si           2         0.790287   0.594729   0.227599   x
            x  Si           3         0.709979   0.095404   0.272613   x
            x  Si           4         0.209978   0.595403   0.272607   x
            x  Si           5         0.709714   0.905270   0.772406   x
            x  Si           6         0.209713   0.405271   0.772401   x
            x  Si           7         0.290021   0.904596   0.727387   x
            x  Si           8         0.790022   0.404597   0.727393   x
            xxxxxxxxxxxxxxxxxxxxxxxxxxxxxxxxxxxxxxxxxxxxxxxxxxxxxxxxxxxx
 
 
------------------------------------------------------------------------ <-- SCF
SCF loop      Energy                           Energy gain       Timer   <-- SCF
                                               per atom          (sec)   <-- SCF
------------------------------------------------------------------------ <-- SCF
Initial  -1.68454340E+004                                        453.76  <-- SCF
      1  -1.68457414E+004                    7.68438880E-003     472.26  <-- SCF
      2  -1.68457415E+004                    2.76639856E-006     490.51  <-- SCF
      3  -1.68457415E+004                    2.21608336E-008     508.83  <-- SCF
      4  -1.68457415E+004                    4.40834618E-010     527.29  <-- SCF
      5  -1.68457415E+004                    1.14462322E-011     545.34  <-- SCF
------------------------------------------------------------------------ <-- SCF
 
Final energy =  -16845.74151853     eV
(energy not corrected for finite basis set)
 
 
 *********************************** Forces ***********************************
 *                                                                            *
 *                        Cartesian components (eV/A)                         *
 * -------------------------------------------------------------------------- *
 *                   x                    y                    z              *
 *                                                                            *
 * O         1      0.04670              0.03956              0.05039         *
 * O         2      0.04671              0.03963              0.05037         *
 * O         3      0.01740              0.04857             -0.03876         *
 * O         4      0.01739              0.04864             -0.03875         *
 * O         5     -0.04670             -0.03956             -0.05039         *
 * O         6     -0.04671             -0.03963             -0.05037         *
 * O         7     -0.01740             -0.04857              0.03876         *
 * O         8     -0.01739             -0.04864              0.03875         *
 * O         9     -0.07907              0.02301              0.04481         *
 * O        10     -0.07902              0.02303              0.04483         *
 * O        11      0.08840              0.01101             -0.03465         *
 * O        12      0.08836              0.01102             -0.03467         *
 * O        13      0.07907             -0.02301             -0.04481         *
 * O        14      0.07902             -0.02303             -0.04483         *
 * O        15     -0.08840             -0.01101              0.03465         *
 * O        16     -0.08836             -0.01102              0.03467         *
 * O        17     -0.02039              0.05345              0.00843         *
 * O        18     -0.02052              0.05349              0.00839         *
 * O        19      0.01181             -0.00867              0.07768         *
 * O        20      0.01195             -0.00865              0.07773         *
 * O        21      0.02039             -0.05345             -0.00843         *
 * O        22      0.02052             -0.05349             -0.00839         *
 * O        23     -0.01181              0.00867             -0.07768         *
 * O        24     -0.01195              0.00865             -0.07773         *
 * Na        1     -0.00150              0.06756             -0.01954         *
 * Na        2     -0.00150              0.06747             -0.01954         *
 * Na        3      0.00150             -0.06756              0.01954         *
 * Na        4      0.00150             -0.06747              0.01954         *
 * Al        1      0.02621              0.02570             -0.01016         *
 * Al        2      0.02621              0.02569             -0.01015         *
 * Al        3     -0.02621             -0.02570              0.01016         *
 * Al        4     -0.02621             -0.02569              0.01015         *
 * Si        1      0.07910             -0.06552              0.00626         *
 * Si        2      0.07898             -0.06558              0.00624         *
 * Si        3     -0.08601              0.00461             -0.03449         *
 * Si        4     -0.08590              0.00457             -0.03446         *
 * Si        5     -0.07910              0.06552             -0.00626         *
 * Si        6     -0.07898              0.06558             -0.00624         *
 * Si        7      0.08601             -0.00461              0.03449         *
 * Si        8      0.08590             -0.00457              0.03446         *
 *                                                                            *
 ******************************************************************************
  
 +------------+-------------+-------------+-----------------+ <-- min BFGS
 |    Step    |   lambda    |   F.delta   |    enthalpy     | <-- min BFGS
 +------------+-------------+-------------+-----------------+ <-- min BFGS
 |  previous  |    0.000000 |    0.000121 |   -16835.165198 | <-- min BFGS
 | trial step |    1.000000 |    0.000104 |   -16835.168254 | <-- min BFGS
 |  line step |    7.092401 |    0.000001 |   -16835.176904 | <-- min BFGS
 +------------+-------------+-------------+-----------------+ <-- min BFGS
  
 BFGS: finished iteration     2 with enthalpy= -1.68351769E+004 eV
  
 +-----------+-----------------+-----------------+------------+-----+ <-- BFGS
 | Parameter |      value      |    tolerance    |    units   | OK? | <-- BFGS
 +-----------+-----------------+-----------------+------------+-----+ <-- BFGS
 |  dE/ion   |   2.926470E-004 |   2.000000E-007 |         eV | No  | <-- BFGS
 |  |F|max   |   1.029002E-001 |   1.000000E-003 |       eV/A | No  | <-- BFGS
 |  |dR|max  |   7.018462E-003 |   1.000000E-003 |          A | No  | <-- BFGS
 +-----------+-----------------+-----------------+------------+-----+ <-- BFGS
  

================================================================================
 Starting BFGS iteration          3 ...
================================================================================
 
Writing model to jadeite_4_30_GPa_cij__2__6.check
  
 +------------+-------------+-------------+-----------------+ <-- min BFGS
 |    Step    |   lambda    |   F.delta   |    enthalpy     | <-- min BFGS
 +------------+-------------+-------------+-----------------+ <-- min BFGS
 |  previous  |    0.000000 |    0.000046 |   -16835.176904 | <-- min BFGS
 +------------+-------------+-------------+-----------------+ <-- min BFGS
  

--------------------------------------------------------------------------------
 BFGS: starting iteration         3 with trial guess (lambda=  1.000000)
--------------------------------------------------------------------------------
 
                           -------------------------------
                                     Cell Contents
                           -------------------------------
 
            xxxxxxxxxxxxxxxxxxxxxxxxxxxxxxxxxxxxxxxxxxxxxxxxxxxxxxxxxxxx
            x  Element    Atom        Fractional coordinates of atoms  x
            x            Number           u          v          w      x
            x----------------------------------------------------------x
            x  O            1         0.109070   0.076929   0.130304   x
            x  O            2         0.609071   0.576928   0.130305   x
            x  O            3         0.890870   0.077140   0.370087   x
            x  O            4         0.390869   0.577139   0.370085   x
            x  O            5         0.890930   0.923071   0.869696   x
            x  O            6         0.390929   0.423072   0.869695   x
            x  O            7         0.109130   0.922860   0.629913   x
            x  O            8         0.609131   0.422861   0.629915   x
            x  O            9         0.360964   0.264775   0.296219   x
            x  O           10         0.860963   0.764775   0.296218   x
            x  O           11         0.639213   0.264289   0.204149   x
            x  O           12         0.139214   0.764290   0.204149   x
            x  O           13         0.639036   0.735225   0.703781   x
            x  O           14         0.139037   0.235225   0.703782   x
            x  O           15         0.360787   0.735711   0.795851   x
            x  O           16         0.860786   0.235710   0.795851   x
            x  O           17         0.355164   0.008930   1.005539   x
            x  O           18         0.855166   0.508926   1.005548   x
            x  O           19         0.644962   0.008689   0.494719   x
            x  O           20         0.144959   0.508686   0.494710   x
            x  O           21         0.644836   0.991070  -0.005539   x
            x  O           22         0.144834   0.491074  -0.005548   x
            x  O           23         0.355038   0.991311   0.505281   x
            x  O           24         0.855041   0.491314   0.505290   x
            x  Na           1        -0.000031   0.301567   0.249741   x
            x  Na           2         0.499969   0.801571   0.249742   x
            x  Na           3         0.000031   0.698433   0.750259   x
            x  Na           4         0.500031   0.198429   0.750258   x
            x  Al           1         0.000284   0.906035   0.250115   x
            x  Al           2         0.500284   0.406035   0.250115   x
            x  Al           3        -0.000284   0.093965   0.749885   x
            x  Al           4         0.499716   0.593965   0.749885   x
            x  Si           1         0.290331   0.094716   0.227621   x
            x  Si           2         0.790332   0.594715   0.227627   x
            x  Si           3         0.709941   0.095404   0.272570   x
            x  Si           4         0.209939   0.595404   0.272565   x
            x  Si           5         0.709669   0.905284   0.772379   x
            x  Si           6         0.209668   0.405285   0.772373   x
            x  Si           7         0.290059   0.904596   0.727430   x
            x  Si           8         0.790061   0.404596   0.727435   x
            xxxxxxxxxxxxxxxxxxxxxxxxxxxxxxxxxxxxxxxxxxxxxxxxxxxxxxxxxxxx
 
 
------------------------------------------------------------------------ <-- SCF
SCF loop      Energy                           Energy gain       Timer   <-- SCF
                                               per atom          (sec)   <-- SCF
------------------------------------------------------------------------ <-- SCF
Initial  -1.68457377E+004                                        554.53  <-- SCF
      1  -1.68457427E+004                    1.25221477E-004     572.90  <-- SCF
      2  -1.68457427E+004                    4.78747168E-008     591.25  <-- SCF
      3  -1.68457427E+004                    2.96828643E-010     609.96  <-- SCF
      4  -1.68457427E+004                    6.65118897E-012     630.82  <-- SCF
------------------------------------------------------------------------ <-- SCF
 
Final energy =  -16845.74269343     eV
(energy not corrected for finite basis set)
 
 
 *********************************** Forces ***********************************
 *                                                                            *
 *                        Cartesian components (eV/A)                         *
 * -------------------------------------------------------------------------- *
 *                   x                    y                    z              *
 *                                                                            *
 * O         1      0.05502              0.03867              0.04399         *
 * O         2      0.05502              0.03874              0.04398         *
 * O         3     -0.00012              0.04863             -0.03594         *
 * O         4     -0.00012              0.04870             -0.03593         *
 * O         5     -0.05502             -0.03867             -0.04399         *
 * O         6     -0.05502             -0.03874             -0.04398         *
 * O         7      0.00012             -0.04863              0.03594         *
 * O         8      0.00012             -0.04870              0.03593         *
 * O         9     -0.07644              0.01327              0.04043         *
 * O        10     -0.07641              0.01327              0.04045         *
 * O        11      0.08628              0.00188             -0.03338         *
 * O        12      0.08624              0.00187             -0.03339         *
 * O        13      0.07644             -0.01327             -0.04043         *
 * O        14      0.07641             -0.01327             -0.04045         *
 * O        15     -0.08628             -0.00188              0.03338         *
 * O        16     -0.08624             -0.00187              0.03339         *
 * O        17     -0.01599              0.05180              0.00583         *
 * O        18     -0.01612              0.05184              0.00579         *
 * O        19      0.00868              0.00008              0.06480         *
 * O        20      0.00881              0.00011              0.06485         *
 * O        21      0.01599             -0.05180             -0.00583         *
 * O        22      0.01612             -0.05184             -0.00579         *
 * O        23     -0.00868             -0.00008             -0.06480         *
 * O        24     -0.00881             -0.00011             -0.06485         *
 * Na        1     -0.00062              0.06329             -0.01865         *
 * Na        2     -0.00062              0.06320             -0.01865         *
 * Na        3      0.00062             -0.06329              0.01865         *
 * Na        4      0.00062             -0.06320              0.01865         *
 * Al        1      0.02224              0.02886             -0.00910         *
 * Al        2      0.02224              0.02885             -0.00909         *
 * Al        3     -0.02224             -0.02886              0.00910         *
 * Al        4     -0.02224             -0.02885              0.00909         *
 * Si        1      0.06043             -0.04783              0.00689         *
 * Si        2      0.06034             -0.04787              0.00687         *
 * Si        3     -0.06619              0.00757             -0.02848         *
 * Si        4     -0.06610              0.00754             -0.02845         *
 * Si        5     -0.06043              0.04783             -0.00689         *
 * Si        6     -0.06034              0.04787             -0.00687         *
 * Si        7      0.06619             -0.00757              0.02848         *
 * Si        8      0.06610             -0.00754              0.02845         *
 *                                                                            *
 ******************************************************************************
  
 +------------+-------------+-------------+-----------------+ <-- min BFGS
 |    Step    |   lambda    |   F.delta   |    enthalpy     | <-- min BFGS
 +------------+-------------+-------------+-----------------+ <-- min BFGS
 |  previous  |    0.000000 |    0.000046 |   -16835.176904 | <-- min BFGS
 | trial step |    1.000000 |    0.000040 |   -16835.178078 | <-- min BFGS
 +------------+-------------+-------------+-----------------+ <-- min BFGS
  

--------------------------------------------------------------------------------
 BFGS: improving iteration         3 with line minimization (lambda=  7.543192)
--------------------------------------------------------------------------------
 
                           -------------------------------
                                     Cell Contents
                           -------------------------------
 
            xxxxxxxxxxxxxxxxxxxxxxxxxxxxxxxxxxxxxxxxxxxxxxxxxxxxxxxxxxxx
            x  Element    Atom        Fractional coordinates of atoms  x
            x            Number           u          v          w      x
            x----------------------------------------------------------x
            x  O            1         0.109081   0.077058   0.130876   x
            x  O            2         0.609082   0.577057   0.130878   x
            x  O            3         0.891031   0.077376   0.369778   x
            x  O            4         0.391030   0.577376   0.369777   x
            x  O            5         0.890919   0.922942   0.869124   x
            x  O            6         0.390918   0.422943   0.869122   x
            x  O            7         0.108969   0.922624   0.630222   x
            x  O            8         0.608970   0.422624   0.630223   x
            x  O            9         0.360678   0.265122   0.296519   x
            x  O           10         0.860678   0.765122   0.296519   x
            x  O           11         0.639523   0.264632   0.203963   x
            x  O           12         0.139523   0.764632   0.203963   x
            x  O           13         0.639322   0.734878   0.703481   x
            x  O           14         0.139322   0.234878   0.703481   x
            x  O           15         0.360477   0.735368   0.796037   x
            x  O           16         0.860477   0.235368   0.796037   x
            x  O           17         0.355271   0.009146   1.005427   x
            x  O           18         0.855273   0.509143   1.005435   x
            x  O           19         0.644859   0.008773   0.495039   x
            x  O           20         0.144858   0.508770   0.495031   x
            x  O           21         0.644729   0.990854  -0.005427   x
            x  O           22         0.144727   0.490857  -0.005435   x
            x  O           23         0.355141   0.991227   0.504961   x
            x  O           24         0.855142   0.491230   0.504969   x
            x  Na           1        -0.000033   0.301918   0.249572   x
            x  Na           2         0.499967   0.801921   0.249572   x
            x  Na           3         0.000033   0.698082   0.750428   x
            x  Na           4         0.500033   0.198079   0.750428   x
            x  Al           1         0.000421   0.906065   0.250122   x
            x  Al           2         0.500421   0.406066   0.250122   x
            x  Al           3        -0.000421   0.093935   0.749878   x
            x  Al           4         0.499579   0.593934   0.749878   x
            x  Si           1         0.290623   0.094626   0.227803   x
            x  Si           2         0.790624   0.594625   0.227808   x
            x  Si           3         0.709689   0.095406   0.272290   x
            x  Si           4         0.209688   0.595405   0.272286   x
            x  Si           5         0.709377   0.905374   0.772197   x
            x  Si           6         0.209376   0.405375   0.772192   x
            x  Si           7         0.290311   0.904594   0.727710   x
            x  Si           8         0.790312   0.404595   0.727714   x
            xxxxxxxxxxxxxxxxxxxxxxxxxxxxxxxxxxxxxxxxxxxxxxxxxxxxxxxxxxxx
 
 
------------------------------------------------------------------------ <-- SCF
SCF loop      Energy                           Energy gain       Timer   <-- SCF
                                               per atom          (sec)   <-- SCF
------------------------------------------------------------------------ <-- SCF
Initial  -1.68455838E+004                                        638.96  <-- SCF
      1  -1.68457462E+004                    4.05935351E-003     656.89  <-- SCF
      2  -1.68457463E+004                    1.43491815E-006     674.82  <-- SCF
      3  -1.68457463E+004                    9.48188860E-009     692.75  <-- SCF
      4  -1.68457463E+004                    1.94663287E-010     711.15  <-- SCF
------------------------------------------------------------------------ <-- SCF
 
Final energy =  -16845.74626521     eV
(energy not corrected for finite basis set)
 
 
 *********************************** Forces ***********************************
 *                                                                            *
 *                        Cartesian components (eV/A)                         *
 * -------------------------------------------------------------------------- *
 *                   x                    y                    z              *
 *                                                                            *
 * O         1      0.10916              0.03278              0.00216         *
 * O         2      0.10908              0.03281              0.00217         *
 * O         3     -0.11362              0.04875             -0.01731         *
 * O         4     -0.11354              0.04877             -0.01732         *
 * O         5     -0.10916             -0.03278             -0.00216         *
 * O         6     -0.10908             -0.03281             -0.00217         *
 * O         7      0.11362             -0.04875              0.01731         *
 * O         8      0.11354             -0.04877              0.01732         *
 * O         9     -0.05913             -0.05070              0.01166         *
 * O        10     -0.05918             -0.05083              0.01167         *
 * O        11      0.07239             -0.05816             -0.02497         *
 * O        12      0.07243             -0.05828             -0.02498         *
 * O        13      0.05913              0.05070             -0.01166         *
 * O        14      0.05918              0.05083             -0.01167         *
 * O        15     -0.07239              0.05816              0.02497         *
 * O        16     -0.07243              0.05828              0.02498         *
 * O        17      0.01276              0.04097             -0.01125         *
 * O        18      0.01266              0.04100             -0.01130         *
 * O        19     -0.01203              0.05740             -0.01962         *
 * O        20     -0.01192              0.05743             -0.01958         *
 * O        21     -0.01276             -0.04097              0.01125         *
 * O        22     -0.01266             -0.04100              0.01130         *
 * O        23      0.01203             -0.05740              0.01962         *
 * O        24      0.01192             -0.05743              0.01958         *
 * Na        1      0.00517              0.03532             -0.01281         *
 * Na        2      0.00517              0.03526             -0.01281         *
 * Na        3     -0.00517             -0.03532              0.01281         *
 * Na        4     -0.00517             -0.03526              0.01281         *
 * Al        1     -0.00367              0.04952             -0.00201         *
 * Al        2     -0.00367              0.04947             -0.00201         *
 * Al        3      0.00367             -0.04952              0.00201         *
 * Al        4      0.00367             -0.04947              0.00201         *
 * Si        1     -0.06170              0.06844              0.01095         *
 * Si        2     -0.06163              0.06857              0.01093         *
 * Si        3      0.06273              0.02754              0.01067         *
 * Si        4      0.06266              0.02765              0.01069         *
 * Si        5      0.06170             -0.06844             -0.01095         *
 * Si        6      0.06163             -0.06857             -0.01093         *
 * Si        7     -0.06273             -0.02754             -0.01067         *
 * Si        8     -0.06266             -0.02765             -0.01069         *
 *                                                                            *
 ******************************************************************************
  
 +------------+-------------+-------------+-----------------+ <-- min BFGS
 |    Step    |   lambda    |   F.delta   |    enthalpy     | <-- min BFGS
 +------------+-------------+-------------+-----------------+ <-- min BFGS
 |  previous  |    0.000000 |    0.000046 |   -16835.176904 | <-- min BFGS
 | trial step |    1.000000 |    0.000040 |   -16835.178078 | <-- min BFGS
 |  line step |    7.543192 |    0.000000 |   -16835.181650 | <-- min BFGS
 +------------+-------------+-------------+-----------------+ <-- min BFGS
  
 BFGS: finished iteration     3 with enthalpy= -1.68351817E+004 eV
  
 +-----------+-----------------+-----------------+------------+-----+ <-- BFGS
 | Parameter |      value      |    tolerance    |    units   | OK? | <-- BFGS
 +-----------+-----------------+-----------------+------------+-----+ <-- BFGS
 |  dE/ion   |   1.186670E-004 |   2.000000E-007 |         eV | No  | <-- BFGS
 |  |F|max   |   1.248414E-001 |   1.000000E-003 |       eV/A | No  | <-- BFGS
 |  |dR|max  |   5.286829E-003 |   1.000000E-003 |          A | No  | <-- BFGS
 +-----------+-----------------+-----------------+------------+-----+ <-- BFGS
  

[...]
            x  O           20         0.144908   0.511070   0.497844   x
            x  O           21         0.644728   0.988408  -0.002398   x
            x  O           22         0.144727   0.488408  -0.002398   x
            x  O           23         0.355092   0.988930   0.502156   x
            x  O           24         0.855092   0.488930   0.502156   x
            x  Na           1         0.000298   0.303715   0.248887   x
            x  Na           2         0.500298   0.803715   0.248887   x
            x  Na           3        -0.000298   0.696285   0.751113   x
            x  Na           4         0.499702   0.196285   0.751113   x
            x  Al           1         0.000484   0.906119   0.250144   x
            x  Al           2         0.500484   0.406119   0.250144   x
            x  Al           3        -0.000484   0.093881   0.749856   x
            x  Al           4         0.499516   0.593881   0.749856   x
            x  Si           1         0.290714   0.094797   0.227401   x
            x  Si           2         0.790713   0.594797   0.227401   x
            x  Si           3         0.709748   0.095469   0.272795   x
            x  Si           4         0.209748   0.595468   0.272795   x
            x  Si           5         0.709286   0.905203   0.772599   x
            x  Si           6         0.209287   0.405203   0.772599   x
            x  Si           7         0.290252   0.904531   0.727205   x
            x  Si           8         0.790252   0.404532   0.727205   x
            xxxxxxxxxxxxxxxxxxxxxxxxxxxxxxxxxxxxxxxxxxxxxxxxxxxxxxxxxxxx
 
 
 BFGS: Final Enthalpy     = -1.68351899E+004 eV
 BFGS: Final <frequency>  =    1022.12376 cm-1
 
 ***************************** Symmetrised Forces *****************************
 *                                                                            *
 *                        Cartesian components (eV/A)                         *
 * -------------------------------------------------------------------------- *
 *                   x                    y                    z              *
 *                                                                            *
 * O         1      0.00030              0.00025              0.00047         *
 * O         2      0.00015              0.00021              0.00047         *
 * O         3     -0.00025              0.00019             -0.00002         *
 * O         4     -0.00012              0.00016             -0.00002         *
 * O         5     -0.00030             -0.00025             -0.00047         *
 * O         6     -0.00015             -0.00021             -0.00047         *
 * O         7      0.00025             -0.00019              0.00002         *
 * O         8      0.00012             -0.00016              0.00002         *
 * O         9      0.00013              0.00068              0.00010         *
 * O        10     -0.00001              0.00044              0.00010         *
 * O        11      0.00047              0.00019              0.00055         *
 * O        12      0.00060             -0.00005              0.00056         *
 * O        13     -0.00013             -0.00068             -0.00010         *
 * O        14      0.00001             -0.00044             -0.00010         *
 * O        15     -0.00047             -0.00019             -0.00055         *
 * O        16     -0.00060              0.00005             -0.00056         *
 * O        17     -0.00025              0.00003             -0.00007         *
 * O        18     -0.00028              0.00002             -0.00009         *
 * O        19      0.00026             -0.00007              0.00024         *
 * O        20      0.00029             -0.00008              0.00025         *
 * O        21      0.00025             -0.00003              0.00007         *
 * O        22      0.00028             -0.00002              0.00009         *
 * O        23     -0.00026              0.00007             -0.00024         *
 * O        24     -0.00029              0.00008             -0.00025         *
 * Na        1     -0.00045             -0.00003              0.00013         *
 * Na        2     -0.00045              0.00000              0.00013         *
 * Na        3      0.00045              0.00003             -0.00013         *
 * Na        4      0.00045              0.00000             -0.00013         *
 * Al        1      0.00050              0.00028             -0.00013         *
 * Al        2      0.00050              0.00022             -0.00013         *
 * Al        3     -0.00050             -0.00028              0.00013         *
 * Al        4     -0.00050             -0.00022              0.00013         *
 * Si        1     -0.00051              0.00020             -0.00021         *
 * Si        2     -0.00025              0.00046             -0.00018         *
 * Si        3      0.00066             -0.00002             -0.00005         *
 * Si        4      0.00042              0.00023             -0.00009         *
 * Si        5      0.00051             -0.00020              0.00021         *
 * Si        6      0.00025             -0.00046              0.00018         *
 * Si        7     -0.00066              0.00002              0.00005         *
 * Si        8     -0.00042             -0.00023              0.00009         *
 *                                                                            *
 ******************************************************************************
 
 *********** Symmetrised Stress Tensor ***********
 *                                               *
 *          Cartesian components (GPa)           *
 * --------------------------------------------- *
 *             x             y             z     *
 *                                               *
 *  x     -5.567347     -1.077202     -1.072025  *
 *  y     -1.077202     -5.695109     -0.117760  *
 *  z     -1.072025     -0.117760     -9.661018  *
 *                                               *
 *  Pressure:    6.9745                          *
 *                                               *
 *************************************************
 
 Pseudo atomic calculation performed for O 2s2 2p4
 
 Converged in 36 iterations to a total energy of -429.6485 eV
 
 
 Pseudo atomic calculation performed for Na 2s2 2p6 3s1
 
 Converged in 33 iterations to a total energy of -1302.8467 eV
 
 
 Pseudo atomic calculation performed for Al 3s2 3p1
 
 Converged in 20 iterations to a total energy of -52.7392 eV
 
 
 Pseudo atomic calculation performed for Si 3s2 3p2
 
 Converged in 21 iterations to a total energy of -101.9044 eV
 
Charge spilling parameter for spin component 1 = 0.86%
 
     Atomic Populations (Mulliken)
     -----------------------------
Species   Ion     s      p      d      f     Total  Charge (e)
==============================================================
  O        1     1.84   5.24   0.00   0.00   7.09    -1.09
  O        2     1.84   5.24   0.00   0.00   7.09    -1.09
  O        3     1.84   5.24   0.00   0.00   7.08    -1.08
  O        4     1.84   5.24   0.00   0.00   7.08    -1.08
  O        5     1.84   5.24   0.00   0.00   7.09    -1.09
  O        6     1.84   5.24   0.00   0.00   7.09    -1.09
  O        7     1.84   5.24   0.00   0.00   7.08    -1.08
  O        8     1.84   5.24   0.00   0.00   7.08    -1.08
  O        9     1.84   5.29   0.00   0.00   7.12    -1.12
  O       10     1.84   5.29   0.00   0.00   7.12    -1.12
  O       11     1.84   5.28   0.00   0.00   7.12    -1.12
  O       12     1.84   5.28   0.00   0.00   7.12    -1.12
  O       13     1.84   5.29   0.00   0.00   7.12    -1.12
  O       14     1.84   5.29   0.00   0.00   7.12    -1.12
  O       15     1.84   5.28   0.00   0.00   7.12    -1.12
  O       16     1.84   5.28   0.00   0.00   7.12    -1.12
  O       17     1.83   5.30   0.00   0.00   7.13    -1.13
  O       18     1.83   5.30   0.00   0.00   7.13    -1.13
  O       19     1.83   5.30   0.00   0.00   7.13    -1.13
  O       20     1.83   5.30   0.00   0.00   7.13    -1.13
  O       21     1.83   5.30   0.00   0.00   7.13    -1.13
  O       22     1.83   5.30   0.00   0.00   7.13    -1.13
  O       23     1.83   5.30   0.00   0.00   7.13    -1.13
  O       24     1.83   5.30   0.00   0.00   7.13    -1.13
  Na       1     2.04   5.77   0.00   0.00   7.81     1.19
  Na       2     2.04   5.77   0.00   0.00   7.81     1.19
  Na       3     2.04   5.77   0.00   0.00   7.81     1.19
  Na       4     2.04   5.77   0.00   0.00   7.81     1.19
  Al       1     0.51   0.92   0.00   0.00   1.42     1.58
  Al       2     0.51   0.92   0.00   0.00   1.42     1.58
  Al       3     0.51   0.92   0.00   0.00   1.42     1.58
  Al       4     0.51   0.92   0.00   0.00   1.42     1.58
  Si       1     0.69   1.36   0.00   0.00   2.05     1.95
  Si       2     0.69   1.36   0.00   0.00   2.05     1.95
  Si       3     0.69   1.37   0.00   0.00   2.06     1.94
  Si       4     0.69   1.37   0.00   0.00   2.06     1.94
  Si       5     0.69   1.36   0.00   0.00   2.05     1.95
  Si       6     0.69   1.36   0.00   0.00   2.05     1.95
  Si       7     0.69   1.37   0.00   0.00   2.06     1.94
  Si       8     0.69   1.37   0.00   0.00   2.06     1.94
==============================================================
 
     Bond                     Population      Length (A)
============================================================
   O 009 --   Si 001               0.77        1.58913
   O 013 --   Si 005               0.77        1.58913
   O 014 --   Si 006               0.77        1.58913
   O 010 --   Si 002               0.77        1.58913
   O 011 --   Si 003               0.77        1.59235
   O 015 --   Si 007               0.77        1.59235
   O 016 --   Si 008               0.77        1.59236
   O 012 --   Si 004               0.77        1.59236
   O 022 --   Si 006               0.56        1.62297
   O 018 --   Si 002               0.56        1.62297
   O 021 --   Si 005               0.56        1.62297
   O 017 --   Si 001               0.56        1.62297
   O 024 --   Si 008               0.56        1.62351
   O 020 --   Si 004               0.56        1.62351
   O 019 --   Si 003               0.56        1.62351
   O 023 --   Si 007               0.56        1.62351
   O 024 --   Si 002               0.58        1.63308
   O 020 --   Si 006               0.58        1.63308
   O 023 --   Si 001               0.58        1.63308
   O 019 --   Si 005               0.58        1.63308
   O 002 --   Si 002               0.60        1.63357
   O 006 --   Si 006               0.60        1.63357
   O 005 --   Si 005               0.60        1.63358
   O 001 --   Si 001               0.60        1.63358
   O 021 --   Si 003               0.58        1.63393
   O 017 --   Si 007               0.58        1.63393
   O 018 --   Si 008               0.58        1.63393
   O 022 --   Si 004               0.58        1.63393
   O 004 --   Si 004               0.60        1.63500
   O 008 --   Si 008               0.60        1.63500
   O 007 --   Si 007               0.60        1.63501
   O 003 --   Si 003               0.60        1.63501
   O 010 --   Al 001               0.43        1.84779
   O 014 --   Al 003               0.43        1.84779
   O 013 --   Al 004               0.43        1.84779
   O 009 --   Al 002               0.43        1.84779
   O 016 --   Al 003               0.42        1.86492
   O 012 --   Al 001               0.42        1.86492
   O 011 --   Al 002               0.42        1.86492
   O 015 --   Al 004               0.42        1.86492
   O 003 --   Al 003               0.33        1.91133
   O 007 --   Al 001               0.33        1.91133
   O 004 --   Al 004               0.33        1.91134
   O 008 --   Al 002               0.33        1.91134
   O 005 --   Al 001               0.33        1.91899
   O 001 --   Al 003               0.33        1.91899
   O 002 --   Al 004               0.33        1.91899
   O 006 --   Al 002               0.33        1.91899
   O 001 --   Al 001               0.32        1.98018
   O 005 --   Al 003               0.32        1.98018
   O 002 --   Al 002               0.32        1.98018
   O 006 --   Al 004               0.32        1.98018
   O 003 --   Al 001               0.31        2.00424
   O 007 --   Al 003               0.31        2.00424
   O 008 --   Al 004               0.31        2.00424
   O 004 --   Al 002               0.31        2.00424
   O 003 --   Na 001              -0.02        2.35018
   O 007 --   Na 003              -0.02        2.35018
   O 008 --   Na 004              -0.02        2.35019
   O 004 --   Na 002              -0.02        2.35019
   O 024 --   Na 003              -0.05        2.35278
   O 020 --   Na 001              -0.05        2.35278
   O 019 --   Na 002              -0.05        2.35278
   O 023 --   Na 004              -0.05        2.35278
   O 012 --   Na 003              -0.06        2.35793
   O 016 --   Na 001              -0.06        2.35793
   O 011 --   Na 004              -0.06        2.35793
   O 015 --   Na 002              -0.06        2.35793
   O 005 --   Na 003              -0.02        2.36499
   O 001 --   Na 001              -0.02        2.36499
   O 006 --   Na 004              -0.02        2.36500
   O 002 --   Na 002              -0.02        2.36500
   O 014 --   Na 001              -0.06        2.37120
   O 010 --   Na 003              -0.06        2.37120
   O 013 --   Na 002              -0.06        2.37120
   O 009 --   Na 004              -0.06        2.37120
   O 022 --   Na 003              -0.04        2.37496
   O 018 --   Na 001              -0.04        2.37496
   O 017 --   Na 002              -0.04        2.37496
   O 021 --   Na 004              -0.04        2.37496
   O 001 --    O 005              -0.11        2.46507
   O 002 --    O 006              -0.11        2.46507
   O 003 --    O 007              -0.10        2.48931
   O 004 --    O 008              -0.10        2.48931
   O 020 --    O 022              -0.18        2.56657
   O 018 --    O 024              -0.18        2.56657
   O 017 --    O 023              -0.18        2.56657
   O 019 --    O 021              -0.18        2.56657
   O 009 --    O 023              -0.10        2.58945
   O 013 --    O 019              -0.10        2.58945
   O 014 --    O 020              -0.10        2.58945
   O 010 --    O 024              -0.10        2.58945
   O 015 --    O 017              -0.10        2.59065
   O 011 --    O 021              -0.10        2.59065
   O 016 --    O 018              -0.10        2.59065
   O 012 --    O 022              -0.10        2.59065
   O 008 --    O 018              -0.08        2.62633
   O 004 --    O 022              -0.08        2.62633
   O 007 --    O 017              -0.08        2.62633
   O 003 --    O 021              -0.08        2.62633
   O 006 --    O 020              -0.08        2.63373
   O 002 --    O 024              -0.08        2.63373
   O 005 --    O 019              -0.08        2.63373
   O 001 --    O 023              -0.08        2.63373
   O 013 --    O 021              -0.09        2.63756
   O 009 --    O 017              -0.09        2.63756
   O 014 --    O 022              -0.09        2.63756
   O 010 --    O 018              -0.09        2.63756
   O 011 --    O 019              -0.09        2.63799
   O 015 --    O 023              -0.09        2.63799
   O 016 --    O 024              -0.09        2.63799
   O 012 --    O 020              -0.09        2.63799
   O 008 --    O 024              -0.08        2.64648
   O 004 --    O 020              -0.08        2.64648
   O 003 --    O 019              -0.08        2.64648
   O 007 --    O 023              -0.08        2.64648
   O 018 --   Na 003              -0.01        2.64773
   O 022 --   Na 001              -0.01        2.64773
   O 021 --   Na 002              -0.01        2.64773
   O 017 --   Na 004              -0.01        2.64773
   O 006 --    O 022              -0.08        2.65495
   O 002 --    O 018              -0.08        2.65495
   O 001 --    O 017              -0.08        2.65495
   O 005 --    O 021              -0.08        2.65495
   O 005 --    O 010              -0.08        2.66268
   O 001 --    O 014              -0.08        2.66268
   O 002 --    O 013              -0.08        2.66268
   O 006 --    O 009              -0.08        2.66268
   O 003 --    O 016              -0.08        2.66437
   O 007 --    O 012              -0.08        2.66437
   O 008 --    O 011              -0.08        2.66437
   O 004 --    O 015              -0.08        2.66437
   O 020 --   Na 003              -0.01        2.67890
   O 024 --   Na 001              -0.01        2.67890
   O 023 --   Na 002              -0.01        2.67890
   O 019 --   Na 004              -0.01        2.67890
   O 001 --    O 003              -0.05        2.69299
   O 005 --    O 007              -0.05        2.69299
   O 006 --    O 008              -0.05        2.69299
   O 002 --    O 004              -0.05        2.69299
   O 007 --    O 014              -0.05        2.70392
   O 003 --    O 010              -0.05        2.70392
   O 004 --    O 009              -0.05        2.70392
   O 008 --    O 013              -0.05        2.70392
   O 001 --    O 012              -0.05        2.71009
   O 005 --    O 016              -0.05        2.71009
   O 002 --    O 011              -0.05        2.71009
   O 006 --    O 015              -0.05        2.71009
   O 020 --    O 024              -0.04        2.74043
   O 019 --    O 023              -0.04        2.74043
   O 018 --    O 022              -0.04        2.74254
   O 017 --    O 021              -0.04        2.74254
   O 005 --    O 013              -0.06        2.75983
   O 001 --    O 009              -0.06        2.75983
   O 006 --    O 014              -0.06        2.75983
   O 002 --    O 010              -0.06        2.75983
   O 007 --    O 010              -0.05        2.77701
   O 003 --    O 014              -0.05        2.77701
   O 004 --    O 013              -0.05        2.77701
   O 008 --    O 009              -0.05        2.77701
   O 003 --    O 011              -0.06        2.78224
   O 007 --    O 015              -0.06        2.78224
   O 008 --    O 016              -0.06        2.78224
   O 004 --    O 012              -0.06        2.78224
   O 005 --    O 012              -0.04        2.81108
   O 001 --    O 016              -0.04        2.81108
   O 006 --    O 011              -0.04        2.81108
   O 002 --    O 015              -0.04        2.81108
   O 010 --    O 012              -0.05        2.81474
   O 014 --    O 016              -0.05        2.81474
   O 013 --    O 015              -0.05        2.81474
   O 009 --    O 011              -0.05        2.81474
   O 016 --    O 019              -0.03        2.86642
   O 012 --    O 023              -0.03        2.86642
   O 011 --    O 024              -0.03        2.86642
   O 015 --    O 020              -0.03        2.86642
   O 001 --    O 007              -0.06        2.88321
   O 003 --    O 005              -0.06        2.88321
   O 004 --    O 006              -0.06        2.88321
   O 002 --    O 008              -0.06        2.88321
   O 014 --    O 017              -0.03        2.89295
   O 010 --    O 021              -0.03        2.89295
   O 009 --    O 022              -0.03        2.89295
   O 013 --    O 018              -0.03        2.89295
============================================================
 
 
Writing model to jadeite_4_30_GPa_cij__2__6.check
 
Writing analysis data to jadeite_4_30_GPa_cij__2__6.castep_bin
Initialisation time =      2.32 s
Calculation time    =   3977.82 s
Finalisation time   =      1.31 s
Total time          =   3981.45 s
Peak Memory Use     = 282520 kB
