 +-------------------------------------------------+
 |                                                 |
 |      CCC   AA    SSS  TTTTT  EEEEE  PPPP        |
 |     C     A  A  S       T    E      P   P       |
 |     C     AAAA   SS     T    EEE    PPPP        |
 |     C     A  A     S    T    E      P           |
 |      CCC  A  A  SSS     T    EEEEE  P           |
 |                                                 |
 +-------------------------------------------------+
 |                                                 |
 | Welcome to Academic Release CASTEP version 5.02 |
 | Ab Initio Total Energy Program                  |
 |                                                 |
 | Authors:                                        |
 | M. Segall, M. Probert, C. Pickard, P. Hasnip,   |
 | S. Clark, K. Refson, M. Payne                   |
 |                                                 |
 | Contributors:                                   |
 | P. Lindan, P. Haynes, J. White, V. Milman,      |
 | N. Govind, M. Gibson, P. Tulip, V. Cocula,      |
 | B. Montanari, D. Quigley, M. Glover,            |
 | L. Bernasconi, A. Perlov, M. Plummer            |
 |                                                 |
 | Copyright (c) 2000 - 2009                       |
 |                                                 |
 |     Distributed under the terms of an           |
 |     Agreement between the United Kingdom        |
 |     Car-Parrinello (UKCP) Consortium,           |
 |     Daresbury Laboratory and Accelrys, Inc.     |
 |                                                 |
 | Please cite                                     |
 |                                                 |
 |     "First principles methods using CASTEP"     |
 |                                                 |
 |         Zeitschrift fuer Kristallographie       |
 |           220(5-6) pp. 567-570 (2005)           |
 |                                                 |
 | S. J. Clark, M. D. Segall, C. J. Pickard,       |
 | P. J. Hasnip, M. J. Probert, K. Refson,         |
 | M. C. Payne                                     |
 |                                                 |
 |       in all publications arising from          |
 |              your use of CASTEP                 |
 |                                                 |
 +-------------------------------------------------+
 
 
 Pseudo atomic calculation performed for O 2s2 2p4
 
 Converged in 36 iterations to a total energy of -429.6485 eV
 
 
 Pseudo atomic calculation performed for Na 2s2 2p6 3s1
 
 Converged in 33 iterations to a total energy of -1302.8467 eV
 
 
 Pseudo atomic calculation performed for Al 3s2 3p1
 
 Converged in 20 iterations to a total energy of -52.7392 eV
 
 
 Pseudo atomic calculation performed for Si 3s2 3p2
 
 Converged in 21 iterations to a total energy of -101.9044 eV
 
Calculation parallelised over   36 nodes.
K-points are distributed over    3 groups, each containing   12 nodes.

 ************************************ Title ************************************
 

 ***************************** General Parameters ******************************
  
 output verbosity                               : normal  (1)
 write checkpoint data to                       : jadeite_4_30_GPa_cij__3__1.check
 type of calculation                            : geometry optimization
 stress calculation                             : on
 density difference calculation                 : off
 electron localisation func (ELF) calculation   : off
 Hirshfeld analysis                             : off
 unlimited duration calculation
 timing information                             : on
 memory usage estimate                          : on
 write final potential to formatted file        : off
 write final density to formatted file          : off
  
 output         length unit                     : A
 output           mass unit                     : amu
 output           time unit                     : ps
 output         charge unit                     : e
 output         energy unit                     : eV
 output          force unit                     : eV/A
 output       velocity unit                     : A/ps
 output       pressure unit                     : GPa
 output     inv_length unit                     : 1/A
 output      frequency unit                     : cm-1
 output force constant unit                     : eV/A**2
 output         volume unit                     : A**3
 output   IR intensity unit                     : (D/A)**2/amu
 output         dipole unit                     : D
 output         efield unit                     : eV/A/e
  
 wavefunctions paging                           : none
 data distribution                              : optimal for this architecture
 optimization strategy                          : maximize speed(+++)

 *********************** Exchange-Correlation Parameters ***********************
  
 using functional                               : Perdew Burke Ernzerhof
 Divergence correction                          : off
 DFT+D: Semi-empirical dispersion correction    : off

 ************************* Pseudopotential Parameters **************************
  
 pseudopotential representation                 : reciprocal space
 <beta|phi> representation                      : reciprocal space

 **************************** Basis Set Parameters *****************************
  
 plane wave basis set cut-off                   :   700.0000   eV
 finite basis set correction                    : none

 **************************** Electronic Parameters ****************************
  
 number of  electrons                           :  224.0    
 net charge of system                           :  0.000    
 net spin   of system                           :  0.000    
 number of  up  spins                           :  112.0    
 number of down spins                           :  112.0    
 treating system as non-spin-polarized
 number of bands                                :        112

 ********************* Electronic Minimization Parameters **********************
  
 Method: Treating system as non-metallic,
         and number of  SD  steps               :          1
         and number of  CG  steps               :          4
  
 total energy / atom convergence tol.           : 0.1000E-07   eV
 max force / atom convergence tol.              : ignored
 convergence tolerance window                   :          3   cycles
 max. number of SCF cycles                      :        100

 *********************** Population Analysis Parameters ************************
  
 Population analysis with cutoff                :  3.000       A

 ********************** Geometry Optimization Parameters ***********************
  
 optimization method                            : BFGS
 variable cell method                           : fixed basis quality
 max. number of steps                           :        300
 estimated bulk modulus                         :  500.0       GPa
 estimated <frequency>                          :  1668.       cm-1
 line minimiser tolerance                       :     0.4000
 total energy convergence tolerance             : 0.2000E-06   eV/atom
        max ionic |force| tolerance             : 0.1000E-02   eV/A
 max ionic |displacement| tolerance             : 0.1000E-02   A
   max |stress component| tolerance             : 0.1000E-02   GPa
 convergence tolerance window                   :          2   steps
 backup results every                           :          1   steps

 *******************************************************************************
  
 
                           -------------------------------
                                      Unit Cell
                           -------------------------------
        Real Lattice(A)                      Reciprocal Lattice(1/A)
   8.9813393   0.0000000  -2.8290832        0.6995822   0.0000000   0.0000000
   0.0000000   8.5936826   0.0000000        0.0000000   0.7311400   0.0000000
   0.0000000   0.0000000   5.2199179        0.3791585   0.0000000   1.2036943
 
                       Lattice parameters(A)       Cell Angles
                    a =    9.416378          alpha =   90.000000
                    b =    8.593683          beta  =  107.484203
                    c =    5.219918          gamma =   90.000000
 
                       Current cell volume =  402.887772       A**3
 
                           -------------------------------
                                     Cell Contents
                           -------------------------------
                         Total number of ions in cell =   40
                      Total number of species in cell =    4
                        Max number of any one species =   24
 
            xxxxxxxxxxxxxxxxxxxxxxxxxxxxxxxxxxxxxxxxxxxxxxxxxxxxxxxxxxxx
            x  Element    Atom        Fractional coordinates of atoms  x
            x            Number           u          v          w      x
            x----------------------------------------------------------x
            x  O            1         0.109277   0.076953   0.129205   x
            x  O            2         0.609279   0.576951   0.129208   x
            x  O            3         0.890723   0.076953   0.370795   x
            x  O            4         0.390721   0.576951   0.370792   x
            x  O            5         0.890723   0.923047   0.870795   x
            x  O            6         0.390721   0.423048   0.870792   x
            x  O            7         0.109277   0.923047   0.629205   x
            x  O            8         0.609279   0.423048   0.629208   x
            x  O            9         0.361047   0.263746   0.295383   x
            x  O           10         0.861046   0.763747   0.295382   x
            x  O           11         0.638953   0.263746   0.204617   x
            x  O           12         0.138954   0.763747   0.204618   x
            x  O           13         0.638953   0.736253   0.704617   x
            x  O           14         0.138954   0.236253   0.704618   x
            x  O           15         0.361047   0.736253   0.795383   x
            x  O           16         0.861046   0.236253   0.795382   x
            x  O           17         0.354029   0.008469   1.005059   x
            x  O           18         0.854032   0.508466   1.005069   x
            x  O           19         0.645971   0.008469   0.494941   x
            x  O           20         0.145968   0.508466   0.494931   x
            x  O           21         0.645971   0.991531  -0.005059   x
            x  O           22         0.145968   0.491534  -0.005069   x
            x  O           23         0.354029   0.991531   0.505059   x
            x  O           24         0.854032   0.491534   0.505069   x
            x  Na           1         0.000000   0.301230   0.250000   x
            x  Na           2         0.500000   0.801235   0.250000   x
            x  Na           3         0.000000   0.698770   0.750000   x
            x  Na           4         0.500000   0.198765   0.750000   x
            x  Al           1         0.000000   0.906276   0.250000   x
            x  Al           2         0.500000   0.406276   0.250000   x
            x  Al           3         0.000000   0.093724   0.750000   x
            x  Al           4         0.500000   0.593723   0.750000   x
            x  Si           1         0.290869   0.093825   0.228100   x
            x  Si           2         0.790871   0.593824   0.228106   x
            x  Si           3         0.709131   0.093825   0.271900   x
            x  Si           4         0.209129   0.593824   0.271894   x
            x  Si           5         0.709131   0.906175   0.771900   x
            x  Si           6         0.209129   0.406176   0.771894   x
            x  Si           7         0.290869   0.906175   0.728100   x
            x  Si           8         0.790871   0.406176   0.728106   x
            xxxxxxxxxxxxxxxxxxxxxxxxxxxxxxxxxxxxxxxxxxxxxxxxxxxxxxxxxxxx
 
 
                         No user defined ionic velocities
 
                           -------------------------------
                                   Details of Species
                           -------------------------------
 
                               Mass of species in AMU
                                    O   15.9994000
                                    Na   22.9897700
                                    Al   26.9815400
                                    Si   28.0855000
 
                          Electric Quadrupole Moment (Barn)
                                    O   -0.0255800 Isotope 17
                                    Na    0.1040000 Isotope 23
                                    Al    0.1466000 Isotope 27
                                    Si    1.0000000 No Isotope Defined
 
                          Files used for pseudopotentials:
                                    O O_00PBE.usp
                                    Na Na_00PBE.usp
                                    Al Al_00PBE.usp
                                    Si Si_00PBE.usp
 
                           -------------------------------
                              k-Points For BZ Sampling
                           -------------------------------
                       MP grid size for SCF calculation is  2  2  3
                         Number of kpoints used = 3
 
             +++++++++++++++++++++++++++++++++++++++++++++++++++++++
             +  Number       Fractional coordinates        Weight  +
             +-----------------------------------------------------+
             +     1  -0.250000  -0.250000   0.333333   0.3333333  +
             +     2   0.250000   0.250000   0.000000   0.3333333  +
             +     3   0.250000   0.250000   0.333333   0.3333333  +
             +++++++++++++++++++++++++++++++++++++++++++++++++++++++
 
                           -------------------------------
                               Symmetry and Constraints
                           -------------------------------
 
                      Number of symmetry operations   = 4
                      Number of ionic constraints     = 3
                      Maximum deviation from symmetry = 0.173858E-14     ANG
               Point group of crystal =     5: C2h, 2/m, 2/m
           Set iprint > 1 for details on symmetry rotations/translations
 
                          Centre of mass is constrained
             Set iprint > 1 for details of linear ionic constraints
 
                         Number of cell constraints= 6
                         Cell constraints are:  0 0 0 0 0 0
 
                         External pressure/stress (GPa)
                          4.30000   0.00000   0.00000
                                    4.30000   0.00000
                                              4.30000
  
+---------------- MEMORY AND SCRATCH DISK ESTIMATES PER NODE -----------------+
|                                                     Memory          Disk    |
| Model and support data                               60.0 MB         0.0 MB |
| Electronic energy minimisation requirements          16.8 MB         0.0 MB |
|                                               ----------------------------- |
| Approx. total storage required per node              76.8 MB         0.0 MB |
|                                                                             |
| Requirements will fluctuate during execution and may exceed these estimates |
+-----------------------------------------------------------------------------+
------------------------------------------------------------------------ <-- SCF
SCF loop      Energy                           Energy gain       Timer   <-- SCF
                                               per atom          (sec)   <-- SCF
------------------------------------------------------------------------ <-- SCF
Initial  -1.61598430E+003                                         19.76  <-- SCF
      1  -1.64780025E+004                    3.71550455E+002      31.78  <-- SCF
      2  -1.68132210E+004                    8.38046197E+000      43.25  <-- SCF
      3  -1.68446200E+004                    7.84974434E-001      54.71  <-- SCF
      4  -1.68461345E+004                    3.78643620E-002      65.97  <-- SCF
      5  -1.68461479E+004                    3.33578388E-004      77.16  <-- SCF
      6  -1.68461482E+004                    7.09104672E-006      88.17  <-- SCF
      7  -1.68461482E+004                    2.24988377E-007      98.82  <-- SCF
      8  -1.68461482E+004                    7.41537965E-009     109.43  <-- SCF
      9  -1.68461482E+004                    2.48414174E-010     120.68  <-- SCF
------------------------------------------------------------------------ <-- SCF
 
Final energy =  -16846.14816491     eV
(energy not corrected for finite basis set)
 
 
Writing model to jadeite_4_30_GPa_cij__3__1.check
 
+---------------- MEMORY AND SCRATCH DISK ESTIMATES PER NODE -----------------+
|                                                     Memory          Disk    |
| Model and support data                               53.1 MB         0.0 MB |
| Geometry minimisation requirements                   19.5 MB         0.0 MB |
|                                               ----------------------------- |
| Approx. total storage required per node              72.6 MB         0.0 MB |
|                                                                             |
| Requirements will fluctuate during execution and may exceed these estimates |
+-----------------------------------------------------------------------------+
 
 
 *********************************** Forces ***********************************
 *                                                                            *
 *                        Cartesian components (eV/A)                         *
 * -------------------------------------------------------------------------- *
 *                   x                    y                    z              *
 *                                                                            *
 * O         1     -0.01340             -0.02253             -0.00397         *
 * O         2     -0.01355             -0.02247             -0.00401         *
 * O         3      0.01340             -0.02253              0.00397         *
 * O         4      0.01355             -0.02247              0.00401         *
 * O         5      0.01340              0.02253              0.00397         *
 * O         6      0.01355              0.02247              0.00401         *
 * O         7     -0.01340              0.02253             -0.00397         *
 * O         8     -0.01355              0.02247             -0.00401         *
 * O         9     -0.04933             -0.13822             -0.01334         *
 * O        10     -0.04920             -0.13815             -0.01333         *
 * O        11      0.04933             -0.13822              0.01334         *
 * O        12      0.04920             -0.13815              0.01333         *
 * O        13      0.04933              0.13822              0.01334         *
 * O        14      0.04920              0.13815              0.01333         *
 * O        15     -0.04933              0.13822             -0.01334         *
 * O        16     -0.04920              0.13815             -0.01333         *
 * O        17     -0.01603             -0.01968             -0.00715         *
 * O        18     -0.01608             -0.01960             -0.00719         *
 * O        19      0.01603             -0.01968              0.00715         *
 * O        20      0.01608             -0.01960              0.00719         *
 * O        21      0.01603              0.01968              0.00715         *
 * O        22      0.01608              0.01960              0.00719         *
 * O        23     -0.01603              0.01968             -0.00715         *
 * O        24     -0.01608              0.01960             -0.00719         *
 * Na        1      0.00000             -0.00361              0.00000         *
 * Na        2      0.00000             -0.00372              0.00000         *
 * Na        3      0.00000              0.00361              0.00000         *
 * Na        4      0.00000              0.00372              0.00000         *
 * Al        1      0.00000             -0.03121              0.00000         *
 * Al        2      0.00000             -0.03111              0.00000         *
 * Al        3      0.00000              0.03121              0.00000         *
 * Al        4      0.00000              0.03111              0.00000         *
 * Si        1      0.07959              0.08996              0.01237         *
 * Si        2      0.07939              0.09000              0.01235         *
 * Si        3     -0.07959              0.08996             -0.01237         *
 * Si        4     -0.07939              0.09000             -0.01235         *
 * Si        5     -0.07959             -0.08996             -0.01237         *
 * Si        6     -0.07939             -0.09000             -0.01235         *
 * Si        7      0.07959             -0.08996              0.01237         *
 * Si        8      0.07939             -0.09000              0.01235         *
 *                                                                            *
 ******************************************************************************
 BFGS: finished iteration     0 with enthalpy= -1.68353353E+004 eV
  
 +-----------+-----------------+-----------------+------------+-----+ <-- BFGS
 | Parameter |      value      |    tolerance    |    units   | OK? | <-- BFGS
 +-----------+-----------------+-----------------+------------+-----+ <-- BFGS
 |  dE/ion   |   0.000000E+000 |   2.000000E-007 |         eV | No  | <-- BFGS
 |  |F|max   |   1.473673E-001 |   1.000000E-003 |       eV/A | No  | <-- BFGS
 |  |dR|max  |   0.000000E+000 |   1.000000E-003 |          A | No  | <-- BFGS
 +-----------+-----------------+-----------------+------------+-----+ <-- BFGS
  

================================================================================
 Starting BFGS iteration          1 ...
================================================================================
 
Writing model to jadeite_4_30_GPa_cij__3__1.check
  
 +------------+-------------+-------------+-----------------+ <-- min BFGS
 |    Step    |   lambda    |   F.delta   |    enthalpy     | <-- min BFGS
 +------------+-------------+-------------+-----------------+ <-- min BFGS
 |  previous  |    0.000000 |    0.000054 |   -16835.335265 | <-- min BFGS
 +------------+-------------+-------------+-----------------+ <-- min BFGS
  

--------------------------------------------------------------------------------
 BFGS: starting iteration         1 with trial guess (lambda=  1.000000)
--------------------------------------------------------------------------------
 
                           -------------------------------
                                     Cell Contents
                           -------------------------------
 
            xxxxxxxxxxxxxxxxxxxxxxxxxxxxxxxxxxxxxxxxxxxxxxxxxxxxxxxxxxxx
            x  Element    Atom        Fractional coordinates of atoms  x
            x            Number           u          v          w      x
            x----------------------------------------------------------x
            x  O            1         0.109270   0.076940   0.129197   x
            x  O            2         0.609272   0.576939   0.129200   x
            x  O            3         0.890730   0.076940   0.370803   x
            x  O            4         0.390728   0.576939   0.370800   x
            x  O            5         0.890730   0.923060   0.870803   x
            x  O            6         0.390728   0.423061   0.870800   x
            x  O            7         0.109270   0.923060   0.629197   x
            x  O            8         0.609272   0.423061   0.629200   x
            x  O            9         0.361020   0.263669   0.295356   x
            x  O           10         0.861020   0.763669   0.295355   x
            x  O           11         0.638980   0.263669   0.204644   x
            x  O           12         0.138980   0.763669   0.204645   x
            x  O           13         0.638980   0.736331   0.704644   x
            x  O           14         0.138980   0.236331   0.704645   x
            x  O           15         0.361020   0.736331   0.795356   x
            x  O           16         0.861020   0.236331   0.795355   x
            x  O           17         0.354020   0.008458   1.005048   x
            x  O           18         0.854023   0.508455   1.005058   x
            x  O           19         0.645980   0.008458   0.494952   x
            x  O           20         0.145977   0.508455   0.494942   x
            x  O           21         0.645980   0.991542  -0.005048   x
            x  O           22         0.145977   0.491545  -0.005058   x
            x  O           23         0.354020   0.991542   0.505048   x
            x  O           24         0.854023   0.491545   0.505058   x
            x  Na           1         0.000000   0.301228   0.250000   x
            x  Na           2         0.500000   0.801232   0.250000   x
            x  Na           3         0.000000   0.698772   0.750000   x
            x  Na           4         0.500000   0.198768   0.750000   x
            x  Al           1         0.000000   0.906259   0.250000   x
            x  Al           2         0.500000   0.406259   0.250000   x
            x  Al           3         0.000000   0.093741   0.750000   x
            x  Al           4         0.500000   0.593741   0.750000   x
            x  Si           1         0.290912   0.093875   0.228135   x
            x  Si           2         0.790914   0.593874   0.228141   x
            x  Si           3         0.709088   0.093875   0.271865   x
            x  Si           4         0.209086   0.593874   0.271859   x
            x  Si           5         0.709088   0.906125   0.771865   x
            x  Si           6         0.209086   0.406126   0.771859   x
            x  Si           7         0.290912   0.906125   0.728135   x
            x  Si           8         0.790914   0.406126   0.728141   x
            xxxxxxxxxxxxxxxxxxxxxxxxxxxxxxxxxxxxxxxxxxxxxxxxxxxxxxxxxxxx
 
 
------------------------------------------------------------------------ <-- SCF
SCF loop      Energy                           Energy gain       Timer   <-- SCF
                                               per atom          (sec)   <-- SCF
------------------------------------------------------------------------ <-- SCF
Initial  -1.68461434E+004                                        157.76  <-- SCF
      1  -1.68461494E+004                    1.49535710E-004     169.13  <-- SCF
      2  -1.68461494E+004                    5.67317030E-008     180.50  <-- SCF
      3  -1.68461494E+004                    7.05026031E-010     191.69  <-- SCF
      4  -1.68461494E+004                    1.48491661E-011     204.22  <-- SCF
------------------------------------------------------------------------ <-- SCF
 
Final energy =  -16846.14939635     eV
(energy not corrected for finite basis set)
 
 
 *********************************** Forces ***********************************
 *                                                                            *
 *                        Cartesian components (eV/A)                         *
 * -------------------------------------------------------------------------- *
 *                   x                    y                    z              *
 *                                                                            *
 * O         1     -0.00401             -0.01941             -0.00595         *
 * O         2     -0.00416             -0.01936             -0.00599         *
 * O         3      0.00401             -0.01941              0.00595         *
 * O         4      0.00416             -0.01936              0.00599         *
 * O         5      0.00401              0.01941              0.00595         *
 * O         6      0.00416              0.01936              0.00599         *
 * O         7     -0.00401              0.01941             -0.00595         *
 * O         8     -0.00416              0.01936             -0.00599         *
 * O         9     -0.02960             -0.09916             -0.01284         *
 * O        10     -0.02950             -0.09913             -0.01283         *
 * O        11      0.02960             -0.09916              0.01284         *
 * O        12      0.02950             -0.09913              0.01283         *
 * O        13      0.02960              0.09916              0.01284         *
 * O        14      0.02950              0.09913              0.01283         *
 * O        15     -0.02960              0.09916             -0.01284         *
 * O        16     -0.02950              0.09913             -0.01283         *
 * O        17     -0.01528             -0.01604             -0.00333         *
 * O        18     -0.01536             -0.01597             -0.00337         *
 * O        19      0.01528             -0.01604              0.00333         *
 * O        20      0.01536             -0.01597              0.00337         *
 * O        21      0.01528              0.01604              0.00333         *
 * O        22      0.01536              0.01597              0.00337         *
 * O        23     -0.01528              0.01604             -0.00333         *
 * O        24     -0.01536              0.01597             -0.00337         *
 * Na        1      0.00000             -0.00335              0.00000         *
 * Na        2      0.00000             -0.00346              0.00000         *
 * Na        3      0.00000              0.00335              0.00000         *
 * Na        4      0.00000              0.00346              0.00000         *
 * Al        1      0.00000             -0.02720              0.00000         *
 * Al        2      0.00000             -0.02712              0.00000         *
 * Al        3      0.00000              0.02720              0.00000         *
 * Al        4      0.00000              0.02712              0.00000         *
 * Si        1      0.05286              0.04838              0.00618         *
 * Si        2      0.05269              0.04843              0.00616         *
 * Si        3     -0.05286              0.04838             -0.00618         *
 * Si        4     -0.05269              0.04843             -0.00616         *
 * Si        5     -0.05286             -0.04838             -0.00618         *
 * Si        6     -0.05269             -0.04843             -0.00616         *
 * Si        7      0.05286             -0.04838              0.00618         *
 * Si        8      0.05269             -0.04843              0.00616         *
 *                                                                            *
 ******************************************************************************
  
 +------------+-------------+-------------+-----------------+ <-- min BFGS
 |    Step    |   lambda    |   F.delta   |    enthalpy     | <-- min BFGS
 +------------+-------------+-------------+-----------------+ <-- min BFGS
 |  previous  |    0.000000 |    0.000054 |   -16835.335265 | <-- min BFGS
 | trial step |    1.000000 |    0.000036 |   -16835.336497 | <-- min BFGS
 +------------+-------------+-------------+-----------------+ <-- min BFGS
  

--------------------------------------------------------------------------------
 BFGS: improving iteration         1 with line minimization (lambda=  3.010304)
--------------------------------------------------------------------------------
 
                           -------------------------------
                                     Cell Contents
                           -------------------------------
 
            xxxxxxxxxxxxxxxxxxxxxxxxxxxxxxxxxxxxxxxxxxxxxxxxxxxxxxxxxxxx
            x  Element    Atom        Fractional coordinates of atoms  x
            x            Number           u          v          w      x
            x----------------------------------------------------------x
            x  O            1         0.109255   0.076915   0.129182   x
            x  O            2         0.609257   0.576913   0.129185   x
            x  O            3         0.890745   0.076915   0.370818   x
            x  O            4         0.390743   0.576913   0.370815   x
            x  O            5         0.890745   0.923085   0.870818   x
            x  O            6         0.390743   0.423087   0.870815   x
            x  O            7         0.109255   0.923085   0.629182   x
            x  O            8         0.609257   0.423087   0.629185   x
            x  O            9         0.360967   0.263512   0.295302   x
            x  O           10         0.860966   0.763513   0.295302   x
            x  O           11         0.639033   0.263512   0.204698   x
            x  O           12         0.139034   0.763513   0.204698   x
            x  O           13         0.639033   0.736488   0.704698   x
            x  O           14         0.139034   0.236487   0.704698   x
            x  O           15         0.360967   0.736488   0.795302   x
            x  O           16         0.860966   0.236487   0.795302   x
            x  O           17         0.354003   0.008436   1.005025   x
            x  O           18         0.854006   0.508433   1.005035   x
            x  O           19         0.645997   0.008436   0.494975   x
            x  O           20         0.145994   0.508433   0.494965   x
            x  O           21         0.645997   0.991564  -0.005025   x
            x  O           22         0.145994   0.491567  -0.005035   x
            x  O           23         0.354003   0.991564   0.505025   x
            x  O           24         0.854006   0.491567   0.505035   x
            x  Na           1         0.000000   0.301224   0.250000   x
            x  Na           2         0.500000   0.801228   0.250000   x
            x  Na           3         0.000000   0.698776   0.750000   x
            x  Na           4         0.500000   0.198772   0.750000   x
            x  Al           1         0.000000   0.906224   0.250000   x
            x  Al           2         0.500000   0.406224   0.250000   x
            x  Al           3         0.000000   0.093776   0.750000   x
            x  Al           4         0.500000   0.593776   0.750000   x
            x  Si           1         0.290998   0.093977   0.228204   x
            x  Si           2         0.791000   0.593976   0.228210   x
            x  Si           3         0.709002   0.093977   0.271796   x
            x  Si           4         0.209000   0.593976   0.271790   x
            x  Si           5         0.709002   0.906023   0.771796   x
            x  Si           6         0.209000   0.406024   0.771790   x
            x  Si           7         0.290998   0.906023   0.728204   x
            x  Si           8         0.791000   0.406024   0.728210   x
            xxxxxxxxxxxxxxxxxxxxxxxxxxxxxxxxxxxxxxxxxxxxxxxxxxxxxxxxxxxx
 
 
------------------------------------------------------------------------ <-- SCF
SCF loop      Energy                           Energy gain       Timer   <-- SCF
                                               per atom          (sec)   <-- SCF
------------------------------------------------------------------------ <-- SCF
Initial  -1.68461347E+004                                        232.79  <-- SCF
      1  -1.68461504E+004                    3.91527832E-004     244.29  <-- SCF
      2  -1.68461504E+004                    1.74068112E-007     255.66  <-- SCF
      3  -1.68461504E+004                    2.14562716E-009     266.83  <-- SCF
      4  -1.68461504E+004                    4.35420859E-011     278.54  <-- SCF
------------------------------------------------------------------------ <-- SCF
 
Final energy =  -16846.15038023     eV
(energy not corrected for finite basis set)
 
 
 *********************************** Forces ***********************************
 *                                                                            *
 *                        Cartesian components (eV/A)                         *
 * -------------------------------------------------------------------------- *
 *                   x                    y                    z              *
 *                                                                            *
 * O         1      0.01476             -0.01313             -0.00993         *
 * O         2      0.01460             -0.01308             -0.00996         *
 * O         3     -0.01476             -0.01313              0.00993         *
 * O         4     -0.01460             -0.01308              0.00996         *
 * O         5     -0.01476              0.01313              0.00993         *
 * O         6     -0.01460              0.01308              0.00996         *
 * O         7      0.01476              0.01313             -0.00993         *
 * O         8      0.01460              0.01308             -0.00996         *
 * O         9      0.01039             -0.01978             -0.01175         *
 * O        10      0.01044             -0.01982             -0.01173         *
 * O        11     -0.01039             -0.01978              0.01175         *
 * O        12     -0.01044             -0.01982              0.01173         *
 * O        13     -0.01039              0.01978              0.01175         *
 * O        14     -0.01044              0.01982              0.01173         *
 * O        15      0.01039              0.01978             -0.01175         *
 * O        16      0.01044              0.01982             -0.01173         *
 * O        17     -0.01380             -0.00871              0.00435         *
 * O        18     -0.01390             -0.00865              0.00430         *
 * O        19      0.01380             -0.00871             -0.00435         *
 * O        20      0.01390             -0.00865             -0.00430         *
 * O        21      0.01380              0.00871             -0.00435         *
 * O        22      0.01390              0.00865             -0.00430         *
 * O        23     -0.01380              0.00871              0.00435         *
 * O        24     -0.01390              0.00865              0.00430         *
 * Na        1      0.00000             -0.00285              0.00000         *
 * Na        2      0.00000             -0.00295              0.00000         *
 * Na        3      0.00000              0.00285              0.00000         *
 * Na        4      0.00000              0.00295              0.00000         *
 * Al        1      0.00000             -0.01908              0.00000         *
 * Al        2      0.00000             -0.01903              0.00000         *
 * Al        3      0.00000              0.01908              0.00000         *
 * Al        4      0.00000              0.01903              0.00000         *
 * Si        1     -0.00117             -0.03612             -0.00636         *
 * Si        2     -0.00125             -0.03603             -0.00637         *
 * Si        3      0.00117             -0.03612              0.00636         *
 * Si        4      0.00125             -0.03603              0.00637         *
 * Si        5      0.00117              0.03612              0.00636         *
 * Si        6      0.00125              0.03603              0.00637         *
 * Si        7     -0.00117              0.03612             -0.00636         *
 * Si        8     -0.00125              0.03603             -0.00637         *
 *                                                                            *
 ******************************************************************************
  
 +------------+-------------+-------------+-----------------+ <-- min BFGS
 |    Step    |   lambda    |   F.delta   |    enthalpy     | <-- min BFGS
 +------------+-------------+-------------+-----------------+ <-- min BFGS
 |  previous  |    0.000000 |    0.000054 |   -16835.335265 | <-- min BFGS
 | trial step |    1.000000 |    0.000036 |   -16835.336497 | <-- min BFGS
 |  line step |    3.010304 |    0.000000 |   -16835.337480 | <-- min BFGS
 +------------+-------------+-------------+-----------------+ <-- min BFGS
  
 BFGS: finished iteration     1 with enthalpy= -1.68353375E+004 eV
  
 +-----------+-----------------+-----------------+------------+-----+ <-- BFGS
 | Parameter |      value      |    tolerance    |    units   | OK? | <-- BFGS
 +-----------+-----------------+-----------------+------------+-----+ <-- BFGS
 |  dE/ion   |   5.538307E-005 |   2.000000E-007 |         eV | No  | <-- BFGS
 |  |F|max   |   3.668925E-002 |   1.000000E-003 |       eV/A | No  | <-- BFGS
 |  |dR|max  |   2.145476E-003 |   1.000000E-003 |          A | No  | <-- BFGS
 +-----------+-----------------+-----------------+------------+-----+ <-- BFGS
  

================================================================================
 Starting BFGS iteration          2 ...
================================================================================
 
Writing model to jadeite_4_30_GPa_cij__3__1.check
  
 +------------+-------------+-------------+-----------------+ <-- min BFGS
 |    Step    |   lambda    |   F.delta   |    enthalpy     | <-- min BFGS
 +------------+-------------+-------------+-----------------+ <-- min BFGS
 |  previous  |    0.000000 |    0.000004 |   -16835.337480 | <-- min BFGS
 +------------+-------------+-------------+-----------------+ <-- min BFGS
  

--------------------------------------------------------------------------------
 BFGS: starting iteration         2 with trial guess (lambda=  1.000000)
--------------------------------------------------------------------------------
 
                           -------------------------------
                                     Cell Contents
                           -------------------------------
 
            xxxxxxxxxxxxxxxxxxxxxxxxxxxxxxxxxxxxxxxxxxxxxxxxxxxxxxxxxxxx
            x  Element    Atom        Fractional coordinates of atoms  x
            x            Number           u          v          w      x
            x----------------------------------------------------------x
            x  O            1         0.109263   0.076907   0.129177   x
            x  O            2         0.609264   0.576905   0.129179   x
            x  O            3         0.890737   0.076907   0.370823   x
            x  O            4         0.390736   0.576905   0.370821   x
            x  O            5         0.890737   0.923093   0.870823   x
            x  O            6         0.390736   0.423095   0.870821   x
            x  O            7         0.109263   0.923093   0.629177   x
            x  O            8         0.609264   0.423095   0.629179   x
            x  O            9         0.360971   0.263496   0.295293   x
            x  O           10         0.860970   0.763497   0.295292   x
            x  O           11         0.639029   0.263496   0.204707   x
            x  O           12         0.139030   0.763497   0.204708   x
            x  O           13         0.639029   0.736504   0.704707   x
            x  O           14         0.139030   0.236503   0.704708   x
            x  O           15         0.360971   0.736504   0.795293   x
            x  O           16         0.860970   0.236503   0.795292   x
            x  O           17         0.353995   0.008431   1.005024   x
            x  O           18         0.853998   0.508427   1.005034   x
            x  O           19         0.646005   0.008431   0.494976   x
            x  O           20         0.146002   0.508427   0.494966   x
            x  O           21         0.646005   0.991569  -0.005024   x
            x  O           22         0.146002   0.491573  -0.005034   x
            x  O           23         0.353995   0.991569   0.505024   x
            x  O           24         0.853998   0.491573   0.505034   x
            x  Na           1         0.000000   0.301222   0.250000   x
            x  Na           2         0.500000   0.801226   0.250000   x
            x  Na           3         0.000000   0.698778   0.750000   x
            x  Na           4         0.500000   0.198774   0.750000   x
            x  Al           1         0.000000   0.906212   0.250000   x
            x  Al           2         0.500000   0.406212   0.250000   x
            x  Al           3         0.000000   0.093788   0.750000   x
            x  Al           4         0.500000   0.593788   0.750000   x
            x  Si           1         0.291000   0.093960   0.228200   x
            x  Si           2         0.791002   0.593959   0.228206   x
            x  Si           3         0.709000   0.093960   0.271800   x
            x  Si           4         0.208998   0.593959   0.271794   x
            x  Si           5         0.709000   0.906040   0.771800   x
            x  Si           6         0.208998   0.406041   0.771794   x
            x  Si           7         0.291000   0.906040   0.728200   x
            x  Si           8         0.791002   0.406041   0.728206   x
            xxxxxxxxxxxxxxxxxxxxxxxxxxxxxxxxxxxxxxxxxxxxxxxxxxxxxxxxxxxx
 
 
------------------------------------------------------------------------ <-- SCF
SCF loop      Energy                           Energy gain       Timer   <-- SCF
                                               per atom          (sec)   <-- SCF
------------------------------------------------------------------------ <-- SCF
Initial  -1.68461501E+004                                        298.24  <-- SCF
      1  -1.68461505E+004                    9.80399717E-006     309.59  <-- SCF
      2  -1.68461505E+004                    4.36287061E-009     320.90  <-- SCF
      3  -1.68461505E+004                    5.16627236E-011     333.68  <-- SCF
------------------------------------------------------------------------ <-- SCF
 
Final energy =  -16846.15048813     eV
(energy not corrected for finite basis set)
 
 
 *********************************** Forces ***********************************
 *                                                                            *
 *                        Cartesian components (eV/A)                         *
 * -------------------------------------------------------------------------- *
 *                   x                    y                    z              *
 *                                                                            *
 * O         1      0.01269             -0.01331             -0.00957         *
 * O         2      0.01255             -0.01326             -0.00959         *
 * O         3     -0.01269             -0.01331              0.00957         *
 * O         4     -0.01255             -0.01326              0.00959         *
 * O         5     -0.01269              0.01331              0.00957         *
 * O         6     -0.01255              0.01326              0.00959         *
 * O         7      0.01269              0.01331             -0.00957         *
 * O         8      0.01255              0.01326             -0.00959         *
 * O         9      0.01046             -0.01922             -0.01144         *
 * O        10      0.01051             -0.01925             -0.01143         *
 * O        11     -0.01046             -0.01922              0.01144         *
 * O        12     -0.01051             -0.01925              0.01143         *
 * O        13     -0.01046              0.01922              0.01144         *
 * O        14     -0.01051              0.01925              0.01143         *
 * O        15      0.01046              0.01922             -0.01144         *
 * O        16      0.01051              0.01925             -0.01143         *
 * O        17     -0.01136             -0.00865              0.00372         *
 * O        18     -0.01146             -0.00860              0.00367         *
 * O        19      0.01136             -0.00865             -0.00372         *
 * O        20      0.01146             -0.00860             -0.00367         *
 * O        21      0.01136              0.00865             -0.00372         *
 * O        22      0.01146              0.00860             -0.00367         *
 * O        23     -0.01136              0.00865              0.00372         *
 * O        24     -0.01146              0.00860              0.00367         *
 * Na        1      0.00000             -0.00345              0.00000         *
 * Na        2      0.00000             -0.00355              0.00000         *
 * Na        3      0.00000              0.00345              0.00000         *
 * Na        4      0.00000              0.00355              0.00000         *
 * Al        1      0.00000             -0.01876              0.00000         *
 * Al        2      0.00000             -0.01872              0.00000         *
 * Al        3      0.00000              0.01876              0.00000         *
 * Al        4      0.00000              0.01872              0.00000         *
 * Si        1     -0.00211             -0.03158             -0.00580         *
 * Si        2     -0.00219             -0.03151             -0.00582         *
 * Si        3      0.00211             -0.03158              0.00580         *
 * Si        4      0.00219             -0.03151              0.00582         *
 * Si        5      0.00211              0.03158              0.00580         *
 * Si        6      0.00219              0.03151              0.00582         *
 * Si        7     -0.00211              0.03158             -0.00580         *
 * Si        8     -0.00219              0.03151             -0.00582         *
 *                                                                            *
 ******************************************************************************
  
 +------------+-------------+-------------+-----------------+ <-- min BFGS
 |    Step    |   lambda    |   F.delta   |    enthalpy     | <-- min BFGS
 +------------+-------------+-------------+-----------------+ <-- min BFGS
 |  previous  |    0.000000 |    0.000004 |   -16835.337480 | <-- min BFGS
 | trial step |    1.000000 |    0.000004 |   -16835.337588 | <-- min BFGS
 +------------+-------------+-------------+-----------------+ <-- min BFGS
  

--------------------------------------------------------------------------------
 BFGS: improving iteration         2 with line minimization (lambda= 12.475013)
--------------------------------------------------------------------------------
 
                           -------------------------------
                                     Cell Contents
                           -------------------------------
 
            xxxxxxxxxxxxxxxxxxxxxxxxxxxxxxxxxxxxxxxxxxxxxxxxxxxxxxxxxxxx
            x  Element    Atom        Fractional coordinates of atoms  x
            x            Number           u          v          w      x
            x----------------------------------------------------------x
            x  O            1         0.109348   0.076813   0.129116   x
            x  O            2         0.609349   0.576812   0.129117   x
            x  O            3         0.890652   0.076813   0.370884   x
            x  O            4         0.390651   0.576812   0.370883   x
            x  O            5         0.890652   0.923187   0.870884   x
            x  O            6         0.390651   0.423188   0.870883   x
            x  O            7         0.109348   0.923187   0.629116   x
            x  O            8         0.609349   0.423188   0.629117   x
            x  O            9         0.361015   0.263313   0.295184   x
            x  O           10         0.861015   0.763313   0.295183   x
            x  O           11         0.638985   0.263313   0.204816   x
            x  O           12         0.138985   0.763313   0.204817   x
            x  O           13         0.638985   0.736687   0.704816   x
            x  O           14         0.138985   0.236687   0.704817   x
            x  O           15         0.361015   0.736687   0.795184   x
            x  O           16         0.861015   0.236687   0.795183   x
            x  O           17         0.353904   0.008367   1.005016   x
            x  O           18         0.853906   0.508364   1.005025   x
            x  O           19         0.646096   0.008367   0.494984   x
            x  O           20         0.146094   0.508364   0.494975   x
            x  O           21         0.646096   0.991633  -0.005016   x
            x  O           22         0.146094   0.491636  -0.005025   x
            x  O           23         0.353904   0.991633   0.505016   x
            x  O           24         0.853906   0.491636   0.505025   x
            x  Na           1         0.000000   0.301202   0.250000   x
            x  Na           2         0.500000   0.801206   0.250000   x
            x  Na           3         0.000000   0.698798   0.750000   x
            x  Na           4         0.500000   0.198794   0.750000   x
            x  Al           1         0.000000   0.906077   0.250000   x
            x  Al           2         0.500000   0.406077   0.250000   x
            x  Al           3         0.000000   0.093923   0.750000   x
            x  Al           4         0.500000   0.593923   0.750000   x
            x  Si           1         0.291024   0.093765   0.228155   x
            x  Si           2         0.791025   0.593765   0.228160   x
            x  Si           3         0.708976   0.093765   0.271845   x
            x  Si           4         0.208975   0.593765   0.271840   x
            x  Si           5         0.708976   0.906235   0.771845   x
            x  Si           6         0.208975   0.406235   0.771840   x
            x  Si           7         0.291024   0.906235   0.728155   x
            x  Si           8         0.791025   0.406235   0.728160   x
            xxxxxxxxxxxxxxxxxxxxxxxxxxxxxxxxxxxxxxxxxxxxxxxxxxxxxxxxxxxx
 
 
------------------------------------------------------------------------ <-- SCF
SCF loop      Energy                           Energy gain       Timer   <-- SCF
                                               per atom          (sec)   <-- SCF
------------------------------------------------------------------------ <-- SCF
Initial  -1.68461260E+004                                        350.22  <-- SCF
      1  -1.68461511E+004                    6.25817270E-004     361.57  <-- SCF
      2  -1.68461511E+004                    3.02831263E-007     372.79  <-- SCF
      3  -1.68461511E+004                    2.22621482E-009     384.56  <-- SCF
      4  -1.68461511E+004                    4.59396076E-011     396.79  <-- SCF
------------------------------------------------------------------------ <-- SCF
 
Final energy =  -16846.15107845     eV
(energy not corrected for finite basis set)
 
 
 *********************************** Forces ***********************************
 *                                                                            *
 *                        Cartesian components (eV/A)                         *
 * -------------------------------------------------------------------------- *
 *                   x                    y                    z              *
 *                                                                            *
 * O         1     -0.01125             -0.01536             -0.00538         *
 * O         2     -0.01117             -0.01528             -0.00538         *
 * O         3      0.01125             -0.01536              0.00538         *
 * O         4      0.01117             -0.01528              0.00538         *
 * O         5      0.01125              0.01536              0.00538         *
 * O         6      0.01117              0.01528              0.00538         *
 * O         7     -0.01125              0.01536             -0.00538         *
 * O         8     -0.01117              0.01528             -0.00538         *
 * O         9      0.01140             -0.01255             -0.00783         *
 * O        10      0.01145             -0.01249             -0.00780         *
 * O        11     -0.01140             -0.01255              0.00783         *
 * O        12     -0.01145             -0.01249              0.00780         *
 * O        13     -0.01140              0.01255              0.00783         *
 * O        14     -0.01145              0.01249              0.00780         *
 * O        15      0.01140              0.01255             -0.00783         *
 * O        16      0.01145              0.01249             -0.00780         *
 * O        17      0.01685             -0.00805             -0.00357         *
 * O        18      0.01671             -0.00803             -0.00362         *
 * O        19     -0.01685             -0.00805              0.00357         *
 * O        20     -0.01671             -0.00803              0.00362         *
 * O        21     -0.01685              0.00805              0.00357         *
 * O        22     -0.01671              0.00803              0.00362         *
 * O        23      0.01685              0.00805             -0.00357         *
 * O        24      0.01671              0.00803             -0.00362         *
 * Na        1      0.00000             -0.01020              0.00000         *
 * Na        2      0.00000             -0.01028              0.00000         *
 * Na        3      0.00000              0.01020              0.00000         *
 * Na        4      0.00000              0.01028              0.00000         *
 * Al        1      0.00000             -0.01518              0.00000         *
 * Al        2      0.00000             -0.01521              0.00000         *
 * Al        3      0.00000              0.01518              0.00000         *
 * Al        4      0.00000              0.01521              0.00000         *
 * Si        1     -0.01279              0.02038              0.00058         *
 * Si        2     -0.01292              0.02024              0.00054         *
 * Si        3      0.01279              0.02038             -0.00058         *
 * Si        4      0.01292              0.02024             -0.00054         *
 * Si        5      0.01279             -0.02038             -0.00058         *
 * Si        6      0.01292             -0.02024             -0.00054         *
 * Si        7     -0.01279             -0.02038              0.00058         *
 * Si        8     -0.01292             -0.02024              0.00054         *
 *                                                                            *
 ******************************************************************************
  
 +------------+-------------+-------------+-----------------+ <-- min BFGS
 |    Step    |   lambda    |   F.delta   |    enthalpy     | <-- min BFGS
 +------------+-------------+-------------+-----------------+ <-- min BFGS
 |  previous  |    0.000000 |    0.000004 |   -16835.337480 | <-- min BFGS
 | trial step |    1.000000 |    0.000004 |   -16835.337588 | <-- min BFGS
 |  line step |   12.475013 |    0.000000 |   -16835.338179 | <-- min BFGS
 +------------+-------------+-------------+-----------------+ <-- min BFGS
  
 BFGS: finished iteration     2 with enthalpy= -1.68353382E+004 eV
  
 +-----------+-----------------+-----------------+------------+-----+ <-- BFGS
 | Parameter |      value      |    tolerance    |    units   | OK? | <-- BFGS
 +-----------+-----------------+-----------------+------------+-----+ <-- BFGS
 |  dE/ion   |   1.745554E-005 |   2.000000E-007 |         eV | No  | <-- BFGS
 |  |F|max   |   2.406587E-002 |   1.000000E-003 |       eV/A | No  | <-- BFGS
 |  |dR|max  |   1.925674E-003 |   1.000000E-003 |          A | No  | <-- BFGS
 +-----------+-----------------+-----------------+------------+-----+ <-- BFGS
  

================================================================================
 Starting BFGS iteration          3 ...
================================================================================
 
Writing model to jadeite_4_30_GPa_cij__3__1.check
  
 +------------+-------------+-------------+-----------------+ <-- min BFGS
 |    Step    |   lambda    |   F.delta   |    enthalpy     | <-- min BFGS
 +------------+-------------+-------------+-----------------+ <-- min BFGS
 |  previous  |    0.000000 |    0.000003 |   -16835.338179 | <-- min BFGS
 +------------+-------------+-------------+-----------------+ <-- min BFGS
  

--------------------------------------------------------------------------------
 BFGS: starting iteration         3 with trial guess (lambda=  1.000000)
--------------------------------------------------------------------------------
 
                           -------------------------------
                                     Cell Contents
                           -------------------------------
 
            xxxxxxxxxxxxxxxxxxxxxxxxxxxxxxxxxxxxxxxxxxxxxxxxxxxxxxxxxxxx
            x  Element    Atom        Fractional coordinates of atoms  x
            x            Number           u          v          w      x
            x----------------------------------------------------------x
            x  O            1         0.109347   0.076796   0.129102   x
            x  O            2         0.609347   0.576795   0.129104   x
            x  O            3         0.890653   0.076796   0.370898   x
            x  O            4         0.390653   0.576795   0.370896   x
            x  O            5         0.890653   0.923204   0.870898   x
            x  O            6         0.390653   0.423205   0.870896   x
            x  O            7         0.109347   0.923204   0.629102   x
            x  O            8         0.609347   0.423205   0.629104   x
            x  O            9         0.361021   0.263282   0.295169   x
            x  O           10         0.861020   0.763283   0.295168   x
            x  O           11         0.638979   0.263282   0.204831   x
            x  O           12         0.138980   0.763283   0.204832   x
            x  O           13         0.638979   0.736718   0.704831   x
            x  O           14         0.138980   0.236717   0.704832   x
            x  O           15         0.361021   0.736718   0.795169   x
            x  O           16         0.861020   0.236717   0.795168   x
            x  O           17         0.353906   0.008356   1.005016   x
            x  O           18         0.853908   0.508353   1.005024   x
            x  O           19         0.646094   0.008356   0.494984   x
            x  O           20         0.146092   0.508353   0.494976   x
            x  O           21         0.646094   0.991644  -0.005016   x
            x  O           22         0.146092   0.491647  -0.005024   x
            x  O           23         0.353906   0.991644   0.505016   x
            x  O           24         0.853908   0.491647   0.505024   x
            x  Na           1         0.000000   0.301195   0.250000   x
            x  Na           2         0.500000   0.801198   0.250000   x
            x  Na           3         0.000000   0.698805   0.750000   x
            x  Na           4         0.500000   0.198802   0.750000   x
            x  Al           1         0.000000   0.906056   0.250000   x
            x  Al           2         0.500000   0.406057   0.250000   x
            x  Al           3         0.000000   0.093944   0.750000   x
            x  Al           4         0.500000   0.593943   0.750000   x
            x  Si           1         0.291025   0.093770   0.228153   x
            x  Si           2         0.791026   0.593770   0.228158   x
            x  Si           3         0.708975   0.093770   0.271847   x
            x  Si           4         0.208974   0.593770   0.271842   x
            x  Si           5         0.708975   0.906230   0.771847   x
            x  Si           6         0.208974   0.406230   0.771842   x
            x  Si           7         0.291025   0.906230   0.728153   x
            x  Si           8         0.791026   0.406230   0.728158   x
            xxxxxxxxxxxxxxxxxxxxxxxxxxxxxxxxxxxxxxxxxxxxxxxxxxxxxxxxxxxx
 
 
------------------------------------------------------------------------ <-- SCF
SCF loop      Energy                           Energy gain       Timer   <-- SCF
                                               per atom          (sec)   <-- SCF
------------------------------------------------------------------------ <-- SCF
Initial  -1.68461506E+004                                        428.26  <-- SCF
      1  -1.68461512E+004                    1.47103908E-005     440.14  <-- SCF
      2  -1.68461512E+004                    5.46023945E-009     451.31  <-- SCF
      3  -1.68461512E+004                    4.50115347E-011     463.15  <-- SCF
------------------------------------------------------------------------ <-- SCF
 
Final energy =  -16846.15115079     eV
(energy not corrected for finite basis set)
 
 
 *********************************** Forces ***********************************
 *                                                                            *
 *                        Cartesian components (eV/A)                         *
 * -------------------------------------------------------------------------- *
 *                   x                    y                    z              *
 *                                                                            *
 * O         1     -0.01032             -0.01381             -0.00525         *
 * O         2     -0.01027             -0.01374             -0.00524         *
 * O         3      0.01032             -0.01381              0.00525         *
 * O         4      0.01027             -0.01374              0.00524         *
 * O         5      0.01032              0.01381              0.00525         *
 * O         6      0.01027              0.01374              0.00524         *
 * O         7     -0.01032              0.01381             -0.00525         *
 * O         8     -0.01027              0.01374             -0.00524         *
 * O         9      0.01434             -0.00326             -0.00730         *
 * O        10      0.01436             -0.00325             -0.00727         *
 * O        11     -0.01434             -0.00326              0.00730         *
 * O        12     -0.01436             -0.00325              0.00727         *
 * O        13     -0.01434              0.00326              0.00730         *
 * O        14     -0.01436              0.00325              0.00727         *
 * O        15      0.01434              0.00326             -0.00730         *
 * O        16      0.01436              0.00325             -0.00727         *
 * O        17      0.01585             -0.00666             -0.00217         *
 * O        18      0.01571             -0.00663             -0.00222         *
 * O        19     -0.01585             -0.00666              0.00217         *
 * O        20     -0.01571             -0.00663              0.00222         *
 * O        21     -0.01585              0.00666              0.00217         *
 * O        22     -0.01571              0.00663              0.00222         *
 * O        23      0.01585              0.00666             -0.00217         *
 * O        24      0.01571              0.00663             -0.00222         *
 * Na        1      0.00000             -0.00981              0.00000         *
 * Na        2      0.00000             -0.00989              0.00000         *
 * Na        3      0.00000              0.00981              0.00000         *
 * Na        4      0.00000              0.00989              0.00000         *
 * Al        1      0.00000             -0.01326              0.00000         *
 * Al        2      0.00000             -0.01329              0.00000         *
 * Al        3      0.00000              0.01326              0.00000         *
 * Al        4      0.00000              0.01329              0.00000         *
 * Si        1     -0.01532              0.01080             -0.00135         *
 * Si        2     -0.01540              0.01071             -0.00139         *
 * Si        3      0.01532              0.01080              0.00135         *
 * Si        4      0.01540              0.01071              0.00139         *
 * Si        5      0.01532             -0.01080              0.00135         *
 * Si        6      0.01540             -0.01071              0.00139         *
 * Si        7     -0.01532             -0.01080             -0.00135         *
 * Si        8     -0.01540             -0.01071             -0.00139         *
 *                                                                            *
 ******************************************************************************
  
 +------------+-------------+-------------+-----------------+ <-- min BFGS
 |    Step    |   lambda    |   F.delta   |    enthalpy     | <-- min BFGS
 +------------+-------------+-------------+-----------------+ <-- min BFGS
 |  previous  |    0.000000 |    0.000003 |   -16835.338179 | <-- min BFGS
 | trial step |    1.000000 |    0.000002 |   -16835.338251 | <-- min BFGS
 +------------+-------------+-------------+-----------------+ <-- min BFGS
  

--------------------------------------------------------------------------------
 BFGS: improving iteration         3 with line minimization (lambda=  3.212001)
--------------------------------------------------------------------------------
 
                           -------------------------------
                                     Cell Contents
                           -------------------------------
 
            xxxxxxxxxxxxxxxxxxxxxxxxxxxxxxxxxxxxxxxxxxxxxxxxxxxxxxxxxxxx
            x  Element    Atom        Fractional coordinates of atoms  x
            x            Number           u          v          w      x
            x----------------------------------------------------------x
            x  O            1         0.109344   0.076759   0.129072   x
            x  O            2         0.609345   0.576759   0.129074   x
            x  O            3         0.890656   0.076759   0.370928   x
            x  O            4         0.390655   0.576759   0.370926   x
            x  O            5         0.890656   0.923241   0.870928   x
            x  O            6         0.390655   0.423241   0.870926   x
            x  O            7         0.109344   0.923241   0.629072   x
            x  O            8         0.609345   0.423241   0.629074   x
            x  O            9         0.361033   0.263215   0.295136   x
            x  O           10         0.861032   0.763215   0.295135   x
            x  O           11         0.638967   0.263215   0.204864   x
            x  O           12         0.138968   0.763215   0.204865   x
            x  O           13         0.638967   0.736785   0.704864   x
            x  O           14         0.138968   0.236785   0.704865   x
            x  O           15         0.361033   0.736785   0.795136   x
            x  O           16         0.861032   0.236785   0.795135   x
            x  O           17         0.353909   0.008333   1.005014   x
            x  O           18         0.853911   0.508330   1.005023   x
            x  O           19         0.646091   0.008333   0.494986   x
            x  O           20         0.146089   0.508330   0.494977   x
            x  O           21         0.646091   0.991667  -0.005014   x
            x  O           22         0.146089   0.491670  -0.005023   x
            x  O           23         0.353909   0.991667   0.505014   x
            x  O           24         0.853911   0.491670   0.505023   x
            x  Na           1         0.000000   0.301179   0.250000   x
            x  Na           2         0.500000   0.801182   0.250000   x
            x  Na           3         0.000000   0.698821   0.750000   x
            x  Na           4         0.500000   0.198818   0.750000   x
            x  Al           1         0.000000   0.906012   0.250000   x
            x  Al           2         0.500000   0.406012   0.250000   x
            x  Al           3         0.000000   0.093988   0.750000   x
            x  Al           4         0.500000   0.593988   0.750000   x
            x  Si           1         0.291027   0.093782   0.228150   x
            x  Si           2         0.791027   0.593782   0.228155   x
            x  Si           3         0.708973   0.093782   0.271850   x
            x  Si           4         0.208973   0.593782   0.271845   x
            x  Si           5         0.708973   0.906218   0.771850   x
            x  Si           6         0.208973   0.406218   0.771845   x
            x  Si           7         0.291027   0.906218   0.728150   x
            x  Si           8         0.791027   0.406218   0.728155   x
            xxxxxxxxxxxxxxxxxxxxxxxxxxxxxxxxxxxxxxxxxxxxxxxxxxxxxxxxxxxx
 
 
------------------------------------------------------------------------ <-- SCF
SCF loop      Energy                           Energy gain       Timer   <-- SCF
                                               per atom          (sec)   <-- SCF
------------------------------------------------------------------------ <-- SCF
Initial  -1.68461494E+004                                        475.72  <-- SCF
      1  -1.68461512E+004                    4.52951223E-005     486.91  <-- SCF
      2  -1.68461512E+004                    1.72121943E-008     498.10  <-- SCF
      3  -1.68461512E+004                    1.48801018E-010     510.41  <-- SCF
      4  -1.68461512E+004                    3.17091567E-012     522.23  <-- SCF
------------------------------------------------------------------------ <-- SCF
 
Final energy =  -16846.15121586     eV
(energy not corrected for finite basis set)
 
 
 *********************************** Forces ***********************************
 *                                                                            *
 *                        Cartesian components (eV/A)                         *
 * -------------------------------------------------------------------------- *
 *                   x                    y                    z              *
 *                                                                            *
 * O         1     -0.00829             -0.01037             -0.00494         *
 * O         2     -0.00829             -0.01032             -0.00494         *
 * O         3      0.00829             -0.01037              0.00494         *
 * O         4      0.00829             -0.01032              0.00494         *
 * O         5      0.00829              0.01037              0.00494         *
 * O         6      0.00829              0.01032              0.00494         *
 * O         7     -0.00829              0.01037             -0.00494         *
 * O         8     -0.00829              0.01032             -0.00494         *
 * O         9      0.02084              0.01734             -0.00610         *
 * O        10      0.02081              0.01725             -0.00607         *
 * O        11     -0.02084              0.01734              0.00610         *
 * O        12     -0.02081              0.01725              0.00607         *
 * O        13     -0.02084             -0.01734              0.00610         *
 * O        14     -0.02081             -0.01725              0.00607         *
 * O        15      0.02084             -0.01734             -0.00610         *
 * O        16      0.02081             -0.01725             -0.00607         *
 * O        17      0.01365             -0.00357              0.00093         *
 * O        18      0.01351             -0.00355              0.00088         *
 * O        19     -0.01365             -0.00357             -0.00093         *
 * O        20     -0.01351             -0.00355             -0.00088         *
 * O        21     -0.01365              0.00357             -0.00093         *
 * O        22     -0.01351              0.00355             -0.00088         *
 * O        23      0.01365              0.00357              0.00093         *
 * O        24      0.01351              0.00355              0.00088         *
 * Na        1      0.00000             -0.00892              0.00000         *
 * Na        2      0.00000             -0.00898              0.00000         *
 * Na        3      0.00000              0.00892              0.00000         *
 * Na        4      0.00000              0.00898              0.00000         *
 * Al        1      0.00000             -0.00899              0.00000         *
 * Al        2      0.00000             -0.00905              0.00000         *
 * Al        3      0.00000              0.00899              0.00000         *
 * Al        4      0.00000              0.00905              0.00000         *
 * Si        1     -0.02093             -0.01044             -0.00563         *
 * Si        2     -0.02089             -0.01042             -0.00565         *
 * Si        3      0.02093             -0.01044              0.00563         *
 * Si        4      0.02089             -0.01042              0.00565         *
 * Si        5      0.02093              0.01044              0.00563         *
 * Si        6      0.02089              0.01042              0.00565         *
 * Si        7     -0.02093              0.01044             -0.00563         *
 * Si        8     -0.02089              0.01042             -0.00565         *
 *                                                                            *
 ******************************************************************************
  
 +------------+-------------+-------------+-----------------+ <-- min BFGS
 |    Step    |   lambda    |   F.delta   |    enthalpy     | <-- min BFGS
 +------------+-------------+-------------+-----------------+ <-- min BFGS
 |  previous  |    0.000000 |    0.000003 |   -16835.338179 | <-- min BFGS
 | trial step |    1.000000 |    0.000002 |   -16835.338251 | <-- min BFGS
 |  line step |    3.212001 |    0.000000 |   -16835.338316 | <-- min BFGS
 +------------+-------------+-------------+-----------------+ <-- min BFGS
  
 BFGS: finished iteration     3 with enthalpy= -1.68353383E+004 eV
  
 +-----------+-----------------+-----------------+------------+-----+ <-- BFGS
 | Parameter |      value      |    tolerance    |    units   | OK? | <-- BFGS
 +-----------+-----------------+-----------------+------------+-----+ <-- BFGS
 |  dE/ion   |   3.435211E-006 |   2.000000E-007 |         eV | No  | <-- BFGS
 |  |F|max   |   2.779078E-002 |   1.000000E-003 |       eV/A | No  | <-- BFGS
 |  |dR|max  |   9.065086E-004 |   1.000000E-003 |          A | Yes | <-- BFGS
 +-----------+-----------------+-----------------+------------+-----+ <-- BFGS
  

================================================================================
 Starting BFGS iteration          4 ...
================================================================================
 
Writing model to jadeite_4_30_GPa_cij__3__1.check
  
 +------------+-------------+-------------+-----------------+ <-- min BFGS
 |    Step    |   lambda    |   F.delta   |    enthalpy     | <-- min BFGS
 +------------+-------------+-------------+-----------------+ <-- min BFGS
 |  previous  |    0.000000 |    0.000005 |   -16835.338316 | <-- min BFGS
[...]
            x  O           20         0.145972   0.508080   0.494805   x
            x  O           21         0.645973   0.991919  -0.005194   x
            x  O           22         0.145972   0.491920  -0.005195   x
            x  O           23         0.354027   0.991919   0.505194   x
            x  O           24         0.854028   0.491920   0.505195   x
            x  Na           1         0.000000   0.300870   0.250000   x
            x  Na           2         0.500000   0.800870   0.250000   x
            x  Na           3         0.000000   0.699130   0.750000   x
            x  Na           4         0.500000   0.199130   0.750000   x
            x  Al           1         0.000000   0.905947   0.250000   x
            x  Al           2         0.500000   0.405947   0.250000   x
            x  Al           3         0.000000   0.094053   0.750000   x
            x  Al           4         0.500000   0.594053   0.750000   x
            x  Si           1         0.290999   0.093721   0.227968   x
            x  Si           2         0.790999   0.593720   0.227969   x
            x  Si           3         0.709001   0.093721   0.272032   x
            x  Si           4         0.209001   0.593720   0.272031   x
            x  Si           5         0.709001   0.906279   0.772032   x
            x  Si           6         0.209001   0.406280   0.772031   x
            x  Si           7         0.290999   0.906279   0.727968   x
            x  Si           8         0.790999   0.406280   0.727969   x
            xxxxxxxxxxxxxxxxxxxxxxxxxxxxxxxxxxxxxxxxxxxxxxxxxxxxxxxxxxxx
 
 
 BFGS: Final Enthalpy     = -1.68353387E+004 eV
 BFGS: Final <frequency>  =     991.69915 cm-1
 
 ***************************** Symmetrised Forces *****************************
 *                                                                            *
 *                        Cartesian components (eV/A)                         *
 * -------------------------------------------------------------------------- *
 *                   x                    y                    z              *
 *                                                                            *
 * O         1     -0.00009              0.00074             -0.00049         *
 * O         2     -0.00008              0.00076             -0.00048         *
 * O         3      0.00009              0.00074              0.00049         *
 * O         4      0.00008              0.00076              0.00048         *
 * O         5      0.00009             -0.00074              0.00049         *
 * O         6      0.00008             -0.00076              0.00048         *
 * O         7     -0.00009             -0.00074             -0.00049         *
 * O         8     -0.00008             -0.00076             -0.00048         *
 * O         9      0.00042             -0.00012              0.00001         *
 * O        10      0.00046             -0.00006              0.00002         *
 * O        11     -0.00042             -0.00012             -0.00001         *
 * O        12     -0.00046             -0.00006             -0.00002         *
 * O        13     -0.00042              0.00012             -0.00001         *
 * O        14     -0.00046              0.00006             -0.00002         *
 * O        15      0.00042              0.00012              0.00001         *
 * O        16      0.00046              0.00006              0.00002         *
 * O        17     -0.00007             -0.00012              0.00025         *
 * O        18     -0.00007             -0.00012              0.00025         *
 * O        19      0.00007             -0.00012             -0.00025         *
 * O        20      0.00007             -0.00012             -0.00025         *
 * O        21      0.00007              0.00012             -0.00025         *
 * O        22      0.00007              0.00012             -0.00025         *
 * O        23     -0.00007              0.00012              0.00025         *
 * O        24     -0.00007              0.00012              0.00025         *
 * Na        1      0.00000             -0.00063              0.00000         *
 * Na        2      0.00000             -0.00065              0.00000         *
 * Na        3      0.00000              0.00063              0.00000         *
 * Na        4      0.00000              0.00065              0.00000         *
 * Al        1      0.00000              0.00015              0.00000         *
 * Al        2      0.00000              0.00016              0.00000         *
 * Al        3      0.00000             -0.00015              0.00000         *
 * Al        4      0.00000             -0.00016              0.00000         *
 * Si        1      0.00011              0.00000              0.00021         *
 * Si        2      0.00004             -0.00005              0.00020         *
 * Si        3     -0.00011              0.00000             -0.00021         *
 * Si        4     -0.00004             -0.00005             -0.00020         *
 * Si        5     -0.00011              0.00000             -0.00021         *
 * Si        6     -0.00004              0.00005             -0.00020         *
 * Si        7      0.00011              0.00000              0.00021         *
 * Si        8      0.00004              0.00005              0.00020         *
 *                                                                            *
 ******************************************************************************
 
 *********** Symmetrised Stress Tensor ***********
 *                                               *
 *          Cartesian components (GPa)           *
 * --------------------------------------------- *
 *             x             y             z     *
 *                                               *
 *  x     -3.718903      0.000000      0.049172  *
 *  y      0.000000     -3.086110      0.000000  *
 *  z      0.049172      0.000000     -3.755616  *
 *                                               *
 *  Pressure:    3.5202                          *
 *                                               *
 *************************************************
 
 Pseudo atomic calculation performed for O 2s2 2p4
 
 Converged in 36 iterations to a total energy of -429.6485 eV
 
 
 Pseudo atomic calculation performed for Na 2s2 2p6 3s1
 
 Converged in 33 iterations to a total energy of -1302.8467 eV
 
 
 Pseudo atomic calculation performed for Al 3s2 3p1
 
 Converged in 20 iterations to a total energy of -52.7392 eV
 
 
 Pseudo atomic calculation performed for Si 3s2 3p2
 
 Converged in 21 iterations to a total energy of -101.9044 eV
 
Charge spilling parameter for spin component 1 = 0.85%
 
     Atomic Populations (Mulliken)
     -----------------------------
Species   Ion     s      p      d      f     Total  Charge (e)
==============================================================
  O        1     1.85   5.24   0.00   0.00   7.08    -1.08
  O        2     1.85   5.24   0.00   0.00   7.08    -1.08
  O        3     1.85   5.24   0.00   0.00   7.08    -1.08
  O        4     1.85   5.24   0.00   0.00   7.08    -1.08
  O        5     1.85   5.24   0.00   0.00   7.08    -1.08
  O        6     1.85   5.24   0.00   0.00   7.08    -1.08
  O        7     1.85   5.24   0.00   0.00   7.08    -1.08
  O        8     1.85   5.24   0.00   0.00   7.08    -1.08
  O        9     1.84   5.29   0.00   0.00   7.12    -1.12
  O       10     1.84   5.29   0.00   0.00   7.12    -1.12
  O       11     1.84   5.29   0.00   0.00   7.12    -1.12
  O       12     1.84   5.29   0.00   0.00   7.12    -1.12
  O       13     1.84   5.29   0.00   0.00   7.12    -1.12
  O       14     1.84   5.29   0.00   0.00   7.12    -1.12
  O       15     1.84   5.29   0.00   0.00   7.12    -1.12
  O       16     1.84   5.29   0.00   0.00   7.12    -1.12
  O       17     1.83   5.30   0.00   0.00   7.12    -1.12
  O       18     1.83   5.30   0.00   0.00   7.12    -1.12
  O       19     1.83   5.30   0.00   0.00   7.12    -1.12
  O       20     1.83   5.30   0.00   0.00   7.12    -1.12
  O       21     1.83   5.30   0.00   0.00   7.12    -1.12
  O       22     1.83   5.30   0.00   0.00   7.12    -1.12
  O       23     1.83   5.30   0.00   0.00   7.12    -1.12
  O       24     1.83   5.30   0.00   0.00   7.12    -1.12
  Na       1     2.04   5.77   0.00   0.00   7.82     1.18
  Na       2     2.04   5.77   0.00   0.00   7.82     1.18
  Na       3     2.04   5.77   0.00   0.00   7.82     1.18
  Na       4     2.04   5.77   0.00   0.00   7.82     1.18
  Al       1     0.51   0.92   0.00   0.00   1.43     1.57
  Al       2     0.51   0.92   0.00   0.00   1.43     1.57
  Al       3     0.51   0.92   0.00   0.00   1.43     1.57
  Al       4     0.51   0.92   0.00   0.00   1.43     1.57
  Si       1     0.69   1.36   0.00   0.00   2.05     1.95
  Si       2     0.69   1.36   0.00   0.00   2.05     1.95
  Si       3     0.69   1.36   0.00   0.00   2.05     1.95
  Si       4     0.69   1.36   0.00   0.00   2.05     1.95
  Si       5     0.69   1.36   0.00   0.00   2.05     1.95
  Si       6     0.69   1.36   0.00   0.00   2.05     1.95
  Si       7     0.69   1.36   0.00   0.00   2.05     1.95
  Si       8     0.69   1.36   0.00   0.00   2.05     1.95
==============================================================
 
     Bond                     Population      Length (A)
============================================================
   O 012 --   Si 004               0.76        1.59379
   O 010 --   Si 002               0.76        1.59379
   O 014 --   Si 006               0.76        1.59379
   O 016 --   Si 008               0.76        1.59379
   O 011 --   Si 003               0.76        1.59379
   O 009 --   Si 001               0.76        1.59379
   O 015 --   Si 007               0.76        1.59379
   O 013 --   Si 005               0.76        1.59379
   O 022 --   Si 006               0.56        1.63121
   O 024 --   Si 008               0.56        1.63121
   O 020 --   Si 004               0.56        1.63121
   O 018 --   Si 002               0.56        1.63121
   O 023 --   Si 007               0.56        1.63121
   O 017 --   Si 001               0.56        1.63121
   O 019 --   Si 003               0.56        1.63121
   O 021 --   Si 005               0.56        1.63121
   O 005 --   Si 005               0.59        1.63823
   O 003 --   Si 003               0.59        1.63823
   O 007 --   Si 007               0.59        1.63823
   O 001 --   Si 001               0.59        1.63823
   O 008 --   Si 008               0.59        1.63823
   O 002 --   Si 002               0.59        1.63823
   O 006 --   Si 006               0.59        1.63823
   O 004 --   Si 004               0.59        1.63823
   O 020 --   Si 006               0.58        1.64183
   O 022 --   Si 004               0.58        1.64183
   O 018 --   Si 008               0.58        1.64183
   O 024 --   Si 002               0.58        1.64183
   O 017 --   Si 007               0.58        1.64183
   O 019 --   Si 005               0.58        1.64183
   O 023 --   Si 001               0.58        1.64183
   O 021 --   Si 003               0.58        1.64183
   O 013 --   Al 004               0.42        1.85855
   O 015 --   Al 004               0.42        1.85855
   O 009 --   Al 002               0.42        1.85855
   O 011 --   Al 002               0.42        1.85855
   O 010 --   Al 001               0.42        1.85855
   O 016 --   Al 003               0.42        1.85855
   O 014 --   Al 003               0.42        1.85855
   O 012 --   Al 001               0.42        1.85855
   O 001 --   Al 003               0.32        1.94229
   O 005 --   Al 001               0.32        1.94229
   O 003 --   Al 003               0.32        1.94229
   O 007 --   Al 001               0.32        1.94229
   O 006 --   Al 002               0.32        1.94229
   O 004 --   Al 004               0.32        1.94229
   O 008 --   Al 002               0.32        1.94229
   O 002 --   Al 004               0.32        1.94229
   O 004 --   Al 002               0.31        1.99997
   O 002 --   Al 002               0.31        1.99997
   O 006 --   Al 004               0.31        1.99997
   O 008 --   Al 004               0.31        1.99997
   O 001 --   Al 001               0.31        1.99997
   O 007 --   Al 003               0.31        1.99997
   O 003 --   Al 001               0.31        1.99997
   O 005 --   Al 003               0.31        1.99997
   O 007 --   Na 003              -0.01        2.35895
   O 005 --   Na 003              -0.01        2.35895
   O 001 --   Na 001              -0.01        2.35895
   O 003 --   Na 001              -0.01        2.35895
   O 008 --   Na 004              -0.01        2.35895
   O 006 --   Na 004              -0.01        2.35895
   O 004 --   Na 002              -0.01        2.35895
   O 002 --   Na 002              -0.01        2.35895
   O 018 --   Na 001              -0.04        2.37439
   O 020 --   Na 001              -0.04        2.37439
   O 024 --   Na 003              -0.04        2.37439
   O 022 --   Na 003              -0.04        2.37439
   O 019 --   Na 002              -0.04        2.37439
   O 021 --   Na 004              -0.04        2.37439
   O 017 --   Na 002              -0.04        2.37439
   O 023 --   Na 004              -0.04        2.37439
   O 016 --   Na 001              -0.05        2.40706
   O 014 --   Na 001              -0.05        2.40706
   O 012 --   Na 003              -0.05        2.40706
   O 010 --   Na 003              -0.05        2.40706
   O 011 --   Na 004              -0.05        2.40706
   O 009 --   Na 004              -0.05        2.40706
   O 015 --   Na 002              -0.05        2.40706
   O 013 --   Na 002              -0.05        2.40706
   O 001 --    O 005              -0.10        2.47381
   O 003 --    O 007              -0.10        2.47381
   O 002 --    O 006              -0.10        2.47381
   O 004 --    O 008              -0.10        2.47381
   O 016 --    O 018              -0.10        2.58657
   O 014 --    O 020              -0.10        2.58657
   O 012 --    O 022              -0.10        2.58657
   O 010 --    O 024              -0.10        2.58657
   O 011 --    O 021              -0.10        2.58657
   O 009 --    O 023              -0.10        2.58657
   O 013 --    O 019              -0.10        2.58657
   O 015 --    O 017              -0.10        2.58657
   O 020 --    O 022              -0.17        2.61365
   O 018 --    O 024              -0.17        2.61365
   O 017 --    O 023              -0.17        2.61365
   O 019 --    O 021              -0.17        2.61365
   O 006 --    O 022              -0.09        2.63969
   O 004 --    O 020              -0.09        2.63969
   O 008 --    O 024              -0.09        2.63969
   O 002 --    O 018              -0.09        2.63969
   O 001 --    O 017              -0.09        2.63969
   O 007 --    O 023              -0.09        2.63969
   O 003 --    O 019              -0.09        2.63969
   O 005 --    O 021              -0.09        2.63969
   O 007 --    O 017              -0.08        2.64115
   O 001 --    O 023              -0.08        2.64115
   O 005 --    O 019              -0.08        2.64115
   O 003 --    O 021              -0.08        2.64115
   O 006 --    O 020              -0.08        2.64115
   O 004 --    O 022              -0.08        2.64115
   O 008 --    O 018              -0.08        2.64115
   O 002 --    O 024              -0.08        2.64115
   O 016 --    O 024              -0.08        2.65247
   O 014 --    O 022              -0.08        2.65247
   O 012 --    O 020              -0.08        2.65247
   O 010 --    O 018              -0.08        2.65247
   O 011 --    O 019              -0.08        2.65247
   O 009 --    O 017              -0.08        2.65247
   O 015 --    O 023              -0.08        2.65247
   O 013 --    O 021              -0.08        2.65247
   O 005 --    O 010              -0.07        2.69000
   O 003 --    O 016              -0.07        2.69000
   O 001 --    O 014              -0.07        2.69000
   O 007 --    O 012              -0.07        2.69000
   O 004 --    O 015              -0.07        2.69000
   O 002 --    O 013              -0.07        2.69000
   O 008 --    O 011              -0.07        2.69000
   O 006 --    O 009              -0.07        2.69000
   O 005 --    O 007              -0.05        2.71998
   O 001 --    O 003              -0.05        2.71998
   O 002 --    O 004              -0.05        2.71999
   O 006 --    O 008              -0.05        2.71999
   O 008 --    O 013              -0.05        2.72431
   O 006 --    O 015              -0.05        2.72431
   O 004 --    O 009              -0.05        2.72431
   O 002 --    O 011              -0.05        2.72431
   O 003 --    O 010              -0.05        2.72431
   O 001 --    O 012              -0.05        2.72431
   O 007 --    O 014              -0.05        2.72431
   O 005 --    O 016              -0.05        2.72431
   O 021 --   Na 002              -0.02        2.73122
   O 023 --   Na 002              -0.02        2.73122
   O 019 --   Na 004              -0.02        2.73122
   O 017 --   Na 004              -0.02        2.73122
   O 024 --   Na 001              -0.02        2.73123
   O 022 --   Na 001              -0.02        2.73123
   O 018 --   Na 003              -0.02        2.73123
   O 020 --   Na 003              -0.02        2.73123
   O 018 --    O 022              -0.04        2.76932
   O 020 --    O 024              -0.04        2.76932
   O 019 --    O 023              -0.04        2.76933
   O 017 --    O 021              -0.04        2.76933
   O 008 --    O 016              -0.06        2.77622
   O 006 --    O 014              -0.06        2.77622
   O 004 --    O 012              -0.06        2.77622
   O 002 --    O 010              -0.06        2.77622
   O 003 --    O 011              -0.06        2.77622
   O 001 --    O 009              -0.06        2.77622
   O 005 --    O 013              -0.06        2.77622
   O 007 --    O 015              -0.06        2.77622
   O 013 --    O 015              -0.05        2.79253
   O 009 --    O 011              -0.05        2.79253
   O 010 --    O 012              -0.05        2.79253
   O 014 --    O 016              -0.05        2.79253
   O 001 --    O 016              -0.04        2.82027
   O 007 --    O 010              -0.04        2.82027
   O 005 --    O 012              -0.04        2.82027
   O 003 --    O 014              -0.04        2.82027
   O 004 --    O 013              -0.04        2.82027
   O 002 --    O 015              -0.04        2.82027
   O 006 --    O 011              -0.04        2.82027
   O 008 --    O 009              -0.04        2.82027
   O 014 --    O 017              -0.02        2.91739
   O 012 --    O 023              -0.02        2.91739
   O 016 --    O 019              -0.02        2.91739
   O 010 --    O 021              -0.02        2.91739
   O 015 --    O 020              -0.02        2.91740
   O 013 --    O 018              -0.02        2.91740
   O 009 --    O 022              -0.02        2.91740
   O 011 --    O 024              -0.02        2.91740
   O 004 --    O 006              -0.06        2.92309
   O 002 --    O 008              -0.06        2.92309
   O 001 --    O 007              -0.06        2.92309
   O 003 --    O 005              -0.06        2.92309
============================================================
 
 
Writing model to jadeite_4_30_GPa_cij__3__1.check
 
Writing analysis data to jadeite_4_30_GPa_cij__3__1.castep_bin
Initialisation time =     16.79 s
Calculation time    =   1571.51 s
Finalisation time   =      0.87 s
Total time          =   1589.17 s
Peak Memory Use     = 221944 kB
