 +-------------------------------------------------+
 |                                                 |
 |      CCC   AA    SSS  TTTTT  EEEEE  PPPP        |
 |     C     A  A  S       T    E      P   P       |
 |     C     AAAA   SS     T    EEE    PPPP        |
 |     C     A  A     S    T    E      P           |
 |      CCC  A  A  SSS     T    EEEEE  P           |
 |                                                 |
 +-------------------------------------------------+
 |                                                 |
 | Welcome to Academic Release CASTEP version 5.02 |
 | Ab Initio Total Energy Program                  |
 |                                                 |
 | Authors:                                        |
 | M. Segall, M. Probert, C. Pickard, P. Hasnip,   |
 | S. Clark, K. Refson, M. Payne                   |
 |                                                 |
 | Contributors:                                   |
 | P. Lindan, P. Haynes, J. White, V. Milman,      |
 | N. Govind, M. Gibson, P. Tulip, V. Cocula,      |
 | B. Montanari, D. Quigley, M. Glover,            |
 | L. Bernasconi, A. Perlov, M. Plummer            |
 |                                                 |
 | Copyright (c) 2000 - 2009                       |
 |                                                 |
 |     Distributed under the terms of an           |
 |     Agreement between the United Kingdom        |
 |     Car-Parrinello (UKCP) Consortium,           |
 |     Daresbury Laboratory and Accelrys, Inc.     |
 |                                                 |
 | Please cite                                     |
 |                                                 |
 |     "First principles methods using CASTEP"     |
 |                                                 |
 |         Zeitschrift fuer Kristallographie       |
 |           220(5-6) pp. 567-570 (2005)           |
 |                                                 |
 | S. J. Clark, M. D. Segall, C. J. Pickard,       |
 | P. J. Hasnip, M. J. Probert, K. Refson,         |
 | M. C. Payne                                     |
 |                                                 |
 |       in all publications arising from          |
 |              your use of CASTEP                 |
 |                                                 |
 +-------------------------------------------------+
 
 
 Pseudo atomic calculation performed for O 2s2 2p4
 
 Converged in 36 iterations to a total energy of -429.6485 eV
 
 
 Pseudo atomic calculation performed for Na 2s2 2p6 3s1
 
 Converged in 33 iterations to a total energy of -1302.8467 eV
 
 
 Pseudo atomic calculation performed for Al 3s2 3p1
 
 Converged in 20 iterations to a total energy of -52.7392 eV
 
 
 Pseudo atomic calculation performed for Si 3s2 3p2
 
 Converged in 21 iterations to a total energy of -101.9044 eV
 
Calculation parallelised over   36 nodes.
K-points are distributed over    3 groups, each containing   12 nodes.

 ************************************ Title ************************************
 

 ***************************** General Parameters ******************************
  
 output verbosity                               : normal  (1)
 write checkpoint data to                       : jadeite_4_30_GPa_cij__3__5.check
 type of calculation                            : geometry optimization
 stress calculation                             : on
 density difference calculation                 : off
 electron localisation func (ELF) calculation   : off
 Hirshfeld analysis                             : off
 unlimited duration calculation
 timing information                             : on
 memory usage estimate                          : on
 write final potential to formatted file        : off
 write final density to formatted file          : off
  
 output         length unit                     : A
 output           mass unit                     : amu
 output           time unit                     : ps
 output         charge unit                     : e
 output         energy unit                     : eV
 output          force unit                     : eV/A
 output       velocity unit                     : A/ps
 output       pressure unit                     : GPa
 output     inv_length unit                     : 1/A
 output      frequency unit                     : cm-1
 output force constant unit                     : eV/A**2
 output         volume unit                     : A**3
 output   IR intensity unit                     : (D/A)**2/amu
 output         dipole unit                     : D
 output         efield unit                     : eV/A/e
  
 wavefunctions paging                           : none
 data distribution                              : optimal for this architecture
 optimization strategy                          : maximize speed(+++)

 *********************** Exchange-Correlation Parameters ***********************
  
 using functional                               : Perdew Burke Ernzerhof
 Divergence correction                          : off
 DFT+D: Semi-empirical dispersion correction    : off

 ************************* Pseudopotential Parameters **************************
  
 pseudopotential representation                 : reciprocal space
 <beta|phi> representation                      : reciprocal space

 **************************** Basis Set Parameters *****************************
  
 plane wave basis set cut-off                   :   700.0000   eV
 finite basis set correction                    : none

 **************************** Electronic Parameters ****************************
  
 number of  electrons                           :  224.0    
 net charge of system                           :  0.000    
 net spin   of system                           :  0.000    
 number of  up  spins                           :  112.0    
 number of down spins                           :  112.0    
 treating system as non-spin-polarized
 number of bands                                :        112

 ********************* Electronic Minimization Parameters **********************
  
 Method: Treating system as non-metallic,
         and number of  SD  steps               :          1
         and number of  CG  steps               :          4
  
 total energy / atom convergence tol.           : 0.1000E-07   eV
 max force / atom convergence tol.              : ignored
 convergence tolerance window                   :          3   cycles
 max. number of SCF cycles                      :        100

 *********************** Population Analysis Parameters ************************
  
 Population analysis with cutoff                :  3.000       A

 ********************** Geometry Optimization Parameters ***********************
  
 optimization method                            : BFGS
 variable cell method                           : fixed basis quality
 max. number of steps                           :        300
 estimated bulk modulus                         :  500.0       GPa
 estimated <frequency>                          :  1668.       cm-1
 line minimiser tolerance                       :     0.4000
 total energy convergence tolerance             : 0.2000E-06   eV/atom
        max ionic |force| tolerance             : 0.1000E-02   eV/A
 max ionic |displacement| tolerance             : 0.1000E-02   A
   max |stress component| tolerance             : 0.1000E-02   GPa
 convergence tolerance window                   :          2   steps
 backup results every                           :          1   steps

 *******************************************************************************
  
 
                           -------------------------------
                                      Unit Cell
                           -------------------------------
        Real Lattice(A)                      Reciprocal Lattice(1/A)
   8.9813393   0.0000000  -2.8290832        0.6995822   0.0000000   0.0000000
   0.0000000   8.6603493   0.0000000        0.0000000   0.7255118   0.0000000
   0.0000000   0.0000000   5.2199179        0.3791585   0.0000000   1.2036943
 
                       Lattice parameters(A)       Cell Angles
                    a =    9.416378          alpha =   90.000000
                    b =    8.660349          beta  =  107.484203
                    c =    5.219918          gamma =   90.000000
 
                       Current cell volume =  406.013229       A**3
 
                           -------------------------------
                                     Cell Contents
                           -------------------------------
                         Total number of ions in cell =   40
                      Total number of species in cell =    4
                        Max number of any one species =   24
 
            xxxxxxxxxxxxxxxxxxxxxxxxxxxxxxxxxxxxxxxxxxxxxxxxxxxxxxxxxxxx
            x  Element    Atom        Fractional coordinates of atoms  x
            x            Number           u          v          w      x
            x----------------------------------------------------------x
            x  O            1         0.109277   0.076953   0.129205   x
            x  O            2         0.609279   0.576951   0.129208   x
            x  O            3         0.890723   0.076953   0.370795   x
            x  O            4         0.390721   0.576951   0.370792   x
            x  O            5         0.890723   0.923047   0.870795   x
            x  O            6         0.390721   0.423048   0.870792   x
            x  O            7         0.109277   0.923047   0.629205   x
            x  O            8         0.609279   0.423048   0.629208   x
            x  O            9         0.361047   0.263746   0.295383   x
            x  O           10         0.861046   0.763747   0.295382   x
            x  O           11         0.638953   0.263746   0.204617   x
            x  O           12         0.138954   0.763747   0.204618   x
            x  O           13         0.638953   0.736253   0.704617   x
            x  O           14         0.138954   0.236253   0.704618   x
            x  O           15         0.361047   0.736253   0.795383   x
            x  O           16         0.861046   0.236253   0.795382   x
            x  O           17         0.354029   0.008469   1.005059   x
            x  O           18         0.854032   0.508466   1.005069   x
            x  O           19         0.645971   0.008469   0.494941   x
            x  O           20         0.145968   0.508466   0.494931   x
            x  O           21         0.645971   0.991531  -0.005059   x
            x  O           22         0.145968   0.491534  -0.005069   x
            x  O           23         0.354029   0.991531   0.505059   x
            x  O           24         0.854032   0.491534   0.505069   x
            x  Na           1         0.000000   0.301230   0.250000   x
            x  Na           2         0.500000   0.801235   0.250000   x
            x  Na           3         0.000000   0.698770   0.750000   x
            x  Na           4         0.500000   0.198765   0.750000   x
            x  Al           1         0.000000   0.906276   0.250000   x
            x  Al           2         0.500000   0.406276   0.250000   x
            x  Al           3         0.000000   0.093724   0.750000   x
            x  Al           4         0.500000   0.593723   0.750000   x
            x  Si           1         0.290869   0.093825   0.228100   x
            x  Si           2         0.790871   0.593824   0.228106   x
            x  Si           3         0.709131   0.093825   0.271900   x
            x  Si           4         0.209129   0.593824   0.271894   x
            x  Si           5         0.709131   0.906175   0.771900   x
            x  Si           6         0.209129   0.406176   0.771894   x
            x  Si           7         0.290869   0.906175   0.728100   x
            x  Si           8         0.790871   0.406176   0.728106   x
            xxxxxxxxxxxxxxxxxxxxxxxxxxxxxxxxxxxxxxxxxxxxxxxxxxxxxxxxxxxx
 
 
                         No user defined ionic velocities
 
                           -------------------------------
                                   Details of Species
                           -------------------------------
 
                               Mass of species in AMU
                                    O   15.9994000
                                    Na   22.9897700
                                    Al   26.9815400
                                    Si   28.0855000
 
                          Electric Quadrupole Moment (Barn)
                                    O   -0.0255800 Isotope 17
                                    Na    0.1040000 Isotope 23
                                    Al    0.1466000 Isotope 27
                                    Si    1.0000000 No Isotope Defined
 
                          Files used for pseudopotentials:
                                    O O_00PBE.usp
                                    Na Na_00PBE.usp
                                    Al Al_00PBE.usp
                                    Si Si_00PBE.usp
 
                           -------------------------------
                              k-Points For BZ Sampling
                           -------------------------------
                       MP grid size for SCF calculation is  2  2  3
                         Number of kpoints used = 3
 
             +++++++++++++++++++++++++++++++++++++++++++++++++++++++
             +  Number       Fractional coordinates        Weight  +
             +-----------------------------------------------------+
             +     1  -0.250000  -0.250000   0.333333   0.3333333  +
             +     2   0.250000   0.250000   0.000000   0.3333333  +
             +     3   0.250000   0.250000   0.333333   0.3333333  +
             +++++++++++++++++++++++++++++++++++++++++++++++++++++++
 
                           -------------------------------
                               Symmetry and Constraints
                           -------------------------------
 
                      Number of symmetry operations   = 4
                      Number of ionic constraints     = 3
                      Maximum deviation from symmetry = 0.147315E-14     ANG
               Point group of crystal =     5: C2h, 2/m, 2/m
           Set iprint > 1 for details on symmetry rotations/translations
 
                          Centre of mass is constrained
             Set iprint > 1 for details of linear ionic constraints
 
                         Number of cell constraints= 6
                         Cell constraints are:  0 0 0 0 0 0
 
                         External pressure/stress (GPa)
                          4.30000   0.00000   0.00000
                                    4.30000   0.00000
                                              4.30000
  
+---------------- MEMORY AND SCRATCH DISK ESTIMATES PER NODE -----------------+
|                                                     Memory          Disk    |
| Model and support data                               60.1 MB         0.0 MB |
| Electronic energy minimisation requirements          16.9 MB         0.0 MB |
|                                               ----------------------------- |
| Approx. total storage required per node              76.9 MB         0.0 MB |
|                                                                             |
| Requirements will fluctuate during execution and may exceed these estimates |
+-----------------------------------------------------------------------------+
------------------------------------------------------------------------ <-- SCF
SCF loop      Energy                           Energy gain       Timer   <-- SCF
                                               per atom          (sec)   <-- SCF
------------------------------------------------------------------------ <-- SCF
Initial  -1.60431294E+003                                          5.28  <-- SCF
      1  -1.65436127E+004                    3.73482495E+002      17.38  <-- SCF
      2  -1.68175776E+004                    6.84912126E+000      30.03  <-- SCF
      3  -1.68449598E+004                    6.84554972E-001      42.68  <-- SCF
      4  -1.68461538E+004                    2.98506845E-002      54.41  <-- SCF
      5  -1.68461663E+004                    3.11113068E-004      65.84  <-- SCF
      6  -1.68461666E+004                    7.15071283E-006      77.39  <-- SCF
      7  -1.68461666E+004                    2.29971819E-007      89.98  <-- SCF
      8  -1.68461666E+004                    7.63641567E-009     102.80  <-- SCF
      9  -1.68461666E+004                    2.57153527E-010     115.58  <-- SCF
------------------------------------------------------------------------ <-- SCF
 
Final energy =  -16846.16656428     eV
(energy not corrected for finite basis set)
 
 
Writing model to jadeite_4_30_GPa_cij__3__5.check
 
+---------------- MEMORY AND SCRATCH DISK ESTIMATES PER NODE -----------------+
|                                                     Memory          Disk    |
| Model and support data                               53.2 MB         0.0 MB |
| Geometry minimisation requirements                   19.6 MB         0.0 MB |
|                                               ----------------------------- |
| Approx. total storage required per node              72.8 MB         0.0 MB |
|                                                                             |
| Requirements will fluctuate during execution and may exceed these estimates |
+-----------------------------------------------------------------------------+
 
 
 *********************************** Forces ***********************************
 *                                                                            *
 *                        Cartesian components (eV/A)                         *
 * -------------------------------------------------------------------------- *
 *                   x                    y                    z              *
 *                                                                            *
 * O         1     -0.03937             -0.06587             -0.01299         *
 * O         2     -0.03951             -0.06582             -0.01303         *
 * O         3      0.03937             -0.06587              0.01299         *
 * O         4      0.03951             -0.06582              0.01303         *
 * O         5      0.03937              0.06587              0.01299         *
 * O         6      0.03951              0.06582              0.01303         *
 * O         7     -0.03937              0.06587             -0.01299         *
 * O         8     -0.03951              0.06582             -0.01303         *
 * O         9     -0.14260             -0.40307             -0.03886         *
 * O        10     -0.14247             -0.40302             -0.03884         *
 * O        11      0.14260             -0.40307              0.03886         *
 * O        12      0.14247             -0.40302              0.03884         *
 * O        13      0.14260              0.40307              0.03886         *
 * O        14      0.14247              0.40302              0.03884         *
 * O        15     -0.14260              0.40307             -0.03886         *
 * O        16     -0.14247              0.40302             -0.03884         *
 * O        17     -0.04707             -0.05796             -0.02115         *
 * O        18     -0.04713             -0.05788             -0.02118         *
 * O        19      0.04707             -0.05796              0.02115         *
 * O        20      0.04713             -0.05788              0.02118         *
 * O        21      0.04707              0.05796              0.02115         *
 * O        22      0.04713              0.05788              0.02118         *
 * O        23     -0.04707              0.05796             -0.02115         *
 * O        24     -0.04713              0.05788             -0.02118         *
 * Na        1      0.00000             -0.01168              0.00000         *
 * Na        2      0.00000             -0.01179              0.00000         *
 * Na        3      0.00000              0.01168              0.00000         *
 * Na        4      0.00000              0.01179              0.00000         *
 * Al        1      0.00000             -0.09437              0.00000         *
 * Al        2      0.00000             -0.09427              0.00000         *
 * Al        3      0.00000              0.09437              0.00000         *
 * Al        4      0.00000              0.09427              0.00000         *
 * Si        1      0.23148              0.25708              0.03502         *
 * Si        2      0.23127              0.25713              0.03499         *
 * Si        3     -0.23148              0.25708             -0.03502         *
 * Si        4     -0.23127              0.25713             -0.03499         *
 * Si        5     -0.23148             -0.25708             -0.03502         *
 * Si        6     -0.23127             -0.25713             -0.03499         *
 * Si        7      0.23148             -0.25708              0.03502         *
 * Si        8      0.23127             -0.25713              0.03499         *
 *                                                                            *
 ******************************************************************************
 BFGS: finished iteration     0 with enthalpy= -1.68352698E+004 eV
  
 +-----------+-----------------+-----------------+------------+-----+ <-- BFGS
 | Parameter |      value      |    tolerance    |    units   | OK? | <-- BFGS
 +-----------+-----------------+-----------------+------------+-----+ <-- BFGS
 |  dE/ion   |   0.000000E+000 |   2.000000E-007 |         eV | No  | <-- BFGS
 |  |F|max   |   4.293166E-001 |   1.000000E-003 |       eV/A | No  | <-- BFGS
 |  |dR|max  |   0.000000E+000 |   1.000000E-003 |          A | No  | <-- BFGS
 +-----------+-----------------+-----------------+------------+-----+ <-- BFGS
  

================================================================================
 Starting BFGS iteration          1 ...
================================================================================
 
Writing model to jadeite_4_30_GPa_cij__3__5.check
  
 +------------+-------------+-------------+-----------------+ <-- min BFGS
 |    Step    |   lambda    |   F.delta   |    enthalpy     | <-- min BFGS
 +------------+-------------+-------------+-----------------+ <-- min BFGS
 |  previous  |    0.000000 |    0.000457 |   -16835.269782 | <-- min BFGS
 +------------+-------------+-------------+-----------------+ <-- min BFGS
  

--------------------------------------------------------------------------------
 BFGS: starting iteration         1 with trial guess (lambda=  1.000000)
--------------------------------------------------------------------------------
 
                           -------------------------------
                                     Cell Contents
                           -------------------------------
 
            xxxxxxxxxxxxxxxxxxxxxxxxxxxxxxxxxxxxxxxxxxxxxxxxxxxxxxxxxxxx
            x  Element    Atom        Fractional coordinates of atoms  x
            x            Number           u          v          w      x
            x----------------------------------------------------------x
            x  O            1         0.109256   0.076916   0.129181   x
            x  O            2         0.609258   0.576915   0.129184   x
            x  O            3         0.890744   0.076916   0.370819   x
            x  O            4         0.390742   0.576915   0.370816   x
            x  O            5         0.890744   0.923084   0.870819   x
            x  O            6         0.390742   0.423085   0.870816   x
            x  O            7         0.109256   0.923084   0.629181   x
            x  O            8         0.609258   0.423085   0.629184   x
            x  O            9         0.360970   0.263521   0.295305   x
            x  O           10         0.860969   0.763522   0.295304   x
            x  O           11         0.639030   0.263521   0.204695   x
            x  O           12         0.139031   0.763522   0.204696   x
            x  O           13         0.639030   0.736479   0.704695   x
            x  O           14         0.139031   0.236478   0.704696   x
            x  O           15         0.360970   0.736479   0.795305   x
            x  O           16         0.860969   0.236478   0.795304   x
            x  O           17         0.354004   0.008437   1.005026   x
            x  O           18         0.854007   0.508434   1.005036   x
            x  O           19         0.645996   0.008437   0.494974   x
            x  O           20         0.145993   0.508434   0.494964   x
            x  O           21         0.645996   0.991563  -0.005026   x
            x  O           22         0.145993   0.491566  -0.005036   x
            x  O           23         0.354004   0.991563   0.505026   x
            x  O           24         0.854007   0.491566   0.505036   x
            x  Na           1         0.000000   0.301223   0.250000   x
            x  Na           2         0.500000   0.801228   0.250000   x
            x  Na           3         0.000000   0.698777   0.750000   x
            x  Na           4         0.500000   0.198772   0.750000   x
            x  Al           1         0.000000   0.906224   0.250000   x
            x  Al           2         0.500000   0.406224   0.250000   x
            x  Al           3         0.000000   0.093776   0.750000   x
            x  Al           4         0.500000   0.593776   0.750000   x
            x  Si           1         0.290994   0.093968   0.228200   x
            x  Si           2         0.790996   0.593967   0.228206   x
            x  Si           3         0.709006   0.093968   0.271800   x
            x  Si           4         0.209004   0.593967   0.271794   x
            x  Si           5         0.709006   0.906032   0.771800   x
            x  Si           6         0.209004   0.406033   0.771794   x
            x  Si           7         0.290994   0.906032   0.728200   x
            x  Si           8         0.790996   0.406033   0.728206   x
            xxxxxxxxxxxxxxxxxxxxxxxxxxxxxxxxxxxxxxxxxxxxxxxxxxxxxxxxxxxx
 
 
------------------------------------------------------------------------ <-- SCF
SCF loop      Energy                           Energy gain       Timer   <-- SCF
                                               per atom          (sec)   <-- SCF
------------------------------------------------------------------------ <-- SCF
Initial  -1.68461467E+004                                        123.26  <-- SCF
      1  -1.68461770E+004                    7.57625277E-004     137.23  <-- SCF
      2  -1.68461771E+004                    3.19920024E-007     151.39  <-- SCF
      3  -1.68461771E+004                    3.89024949E-009     165.40  <-- SCF
      4  -1.68461771E+004                    8.12837164E-011     179.58  <-- SCF
------------------------------------------------------------------------ <-- SCF
 
Final energy =  -16846.17705425     eV
(energy not corrected for finite basis set)
 
 
 *********************************** Forces ***********************************
 *                                                                            *
 *                        Cartesian components (eV/A)                         *
 * -------------------------------------------------------------------------- *
 *                   x                    y                    z              *
 *                                                                            *
 * O         1     -0.01205             -0.05656             -0.01871         *
 * O         2     -0.01220             -0.05651             -0.01874         *
 * O         3      0.01205             -0.05656              0.01871         *
 * O         4      0.01220             -0.05651              0.01874         *
 * O         5      0.01205              0.05656              0.01871         *
 * O         6      0.01220              0.05651              0.01874         *
 * O         7     -0.01205              0.05656             -0.01871         *
 * O         8     -0.01220              0.05651             -0.01874         *
 * O         9     -0.08852             -0.29623             -0.03776         *
 * O        10     -0.08842             -0.29620             -0.03774         *
 * O        11      0.08852             -0.29623              0.03776         *
 * O        12      0.08842             -0.29620              0.03774         *
 * O        13      0.08852              0.29623              0.03776         *
 * O        14      0.08842              0.29620              0.03774         *
 * O        15     -0.08852              0.29623             -0.03776         *
 * O        16     -0.08842              0.29620             -0.03774         *
 * O        17     -0.04459             -0.04756             -0.01031         *
 * O        18     -0.04466             -0.04749             -0.01034         *
 * O        19      0.04459             -0.04756              0.01031         *
 * O        20      0.04466             -0.04749              0.01034         *
 * O        21      0.04459              0.04756              0.01031         *
 * O        22      0.04466              0.04749              0.01034         *
 * O        23     -0.04459              0.04756             -0.01031         *
 * O        24     -0.04466              0.04749             -0.01034         *
 * Na        1      0.00000             -0.01098              0.00000         *
 * Na        2      0.00000             -0.01109              0.00000         *
 * Na        3      0.00000              0.01098              0.00000         *
 * Na        4      0.00000              0.01109              0.00000         *
 * Al        1      0.00000             -0.08203              0.00000         *
 * Al        2      0.00000             -0.08194              0.00000         *
 * Al        3      0.00000              0.08203              0.00000         *
 * Al        4      0.00000              0.08194              0.00000         *
 * Si        1      0.15611              0.14220              0.01786         *
 * Si        2      0.15594              0.14225              0.01783         *
 * Si        3     -0.15611              0.14220             -0.01786         *
 * Si        4     -0.15594              0.14225             -0.01783         *
 * Si        5     -0.15611             -0.14220             -0.01786         *
 * Si        6     -0.15594             -0.14225             -0.01783         *
 * Si        7      0.15611             -0.14220              0.01786         *
 * Si        8      0.15594             -0.14225              0.01783         *
 *                                                                            *
 ******************************************************************************
  
 +------------+-------------+-------------+-----------------+ <-- min BFGS
 |    Step    |   lambda    |   F.delta   |    enthalpy     | <-- min BFGS
 +------------+-------------+-------------+-----------------+ <-- min BFGS
 |  previous  |    0.000000 |    0.000457 |   -16835.269782 | <-- min BFGS
 | trial step |    1.000000 |    0.000313 |   -16835.280272 | <-- min BFGS
 +------------+-------------+-------------+-----------------+ <-- min BFGS
  

--------------------------------------------------------------------------------
 BFGS: improving iteration         1 with line minimization (lambda=  3.168950)
--------------------------------------------------------------------------------
 
                           -------------------------------
                                     Cell Contents
                           -------------------------------
 
            xxxxxxxxxxxxxxxxxxxxxxxxxxxxxxxxxxxxxxxxxxxxxxxxxxxxxxxxxxxx
            x  Element    Atom        Fractional coordinates of atoms  x
            x            Number           u          v          w      x
            x----------------------------------------------------------x
            x  O            1         0.109210   0.076836   0.129130   x
            x  O            2         0.609212   0.576835   0.129133   x
            x  O            3         0.890790   0.076836   0.370870   x
            x  O            4         0.390788   0.576835   0.370867   x
            x  O            5         0.890790   0.923164   0.870870   x
            x  O            6         0.390788   0.423165   0.870867   x
            x  O            7         0.109210   0.923164   0.629130   x
            x  O            8         0.609212   0.423165   0.629133   x
            x  O            9         0.360804   0.263033   0.295137   x
            x  O           10         0.860803   0.763034   0.295136   x
            x  O           11         0.639196   0.263033   0.204863   x
            x  O           12         0.139197   0.763034   0.204864   x
            x  O           13         0.639196   0.736967   0.704863   x
            x  O           14         0.139197   0.236966   0.704864   x
            x  O           15         0.360804   0.736967   0.795137   x
            x  O           16         0.860803   0.236966   0.795136   x
            x  O           17         0.353949   0.008367   1.004953   x
            x  O           18         0.853952   0.508364   1.004963   x
            x  O           19         0.646051   0.008367   0.495047   x
            x  O           20         0.146048   0.508364   0.495037   x
            x  O           21         0.646051   0.991633  -0.004953   x
            x  O           22         0.146048   0.491636  -0.004963   x
            x  O           23         0.353949   0.991633   0.504953   x
            x  O           24         0.853952   0.491636   0.504963   x
            x  Na           1         0.000000   0.301209   0.250000   x
            x  Na           2         0.500000   0.801214   0.250000   x
            x  Na           3         0.000000   0.698791   0.750000   x
            x  Na           4         0.500000   0.198786   0.750000   x
            x  Al           1         0.000000   0.906109   0.250000   x
            x  Al           2         0.500000   0.406110   0.250000   x
            x  Al           3         0.000000   0.093891   0.750000   x
            x  Al           4         0.500000   0.593890   0.750000   x
            x  Si           1         0.291264   0.094279   0.228417   x
            x  Si           2         0.791266   0.594279   0.228423   x
            x  Si           3         0.708736   0.094279   0.271583   x
            x  Si           4         0.208734   0.594279   0.271577   x
            x  Si           5         0.708736   0.905721   0.771583   x
            x  Si           6         0.208734   0.405721   0.771577   x
            x  Si           7         0.291264   0.905721   0.728417   x
            x  Si           8         0.791266   0.405721   0.728423   x
            xxxxxxxxxxxxxxxxxxxxxxxxxxxxxxxxxxxxxxxxxxxxxxxxxxxxxxxxxxxx
 
 
------------------------------------------------------------------------ <-- SCF
SCF loop      Energy                           Energy gain       Timer   <-- SCF
                                               per atom          (sec)   <-- SCF
------------------------------------------------------------------------ <-- SCF
Initial  -1.68460504E+004                                        185.72  <-- SCF
      1  -1.68461860E+004                    3.39164292E-003     199.89  <-- SCF
      2  -1.68461861E+004                    1.52161269E-006     214.26  <-- SCF
      3  -1.68461861E+004                    1.83718987E-008     229.66  <-- SCF
      4  -1.68461861E+004                    3.68831630E-010     245.13  <-- SCF
      5  -1.68461861E+004                    8.35265592E-012     260.49  <-- SCF
------------------------------------------------------------------------ <-- SCF
 
Final energy =  -16846.18609087     eV
(energy not corrected for finite basis set)
 
 
 *********************************** Forces ***********************************
 *                                                                            *
 *                        Cartesian components (eV/A)                         *
 * -------------------------------------------------------------------------- *
 *                   x                    y                    z              *
 *                                                                            *
 * O         1      0.04624             -0.03615             -0.03110         *
 * O         2      0.04608             -0.03611             -0.03113         *
 * O         3     -0.04624             -0.03615              0.03110         *
 * O         4     -0.04608             -0.03611              0.03113         *
 * O         5     -0.04624              0.03615              0.03110         *
 * O         6     -0.04608              0.03611              0.03113         *
 * O         7      0.04624              0.03615             -0.03110         *
 * O         8      0.04608              0.03611             -0.03113         *
 * O         9      0.03176             -0.05676             -0.03453         *
 * O        10      0.03181             -0.05680             -0.03451         *
 * O        11     -0.03176             -0.05676              0.03453         *
 * O        12     -0.03181             -0.05680              0.03451         *
 * O        13     -0.03176              0.05676              0.03453         *
 * O        14     -0.03181              0.05680              0.03451         *
 * O        15      0.03176              0.05676             -0.03453         *
 * O        16      0.03181              0.05680             -0.03451         *
 * O        17     -0.03920             -0.02494              0.01319         *
 * O        18     -0.03930             -0.02489              0.01314         *
 * O        19      0.03920             -0.02494             -0.01319         *
 * O        20      0.03930             -0.02489             -0.01314         *
 * O        21      0.03920              0.02494             -0.01319         *
 * O        22      0.03930              0.02489             -0.01314         *
 * O        23     -0.03920              0.02494              0.01319         *
 * O        24     -0.03930              0.02489              0.01314         *
 * Na        1      0.00000             -0.00950              0.00000         *
 * Na        2      0.00000             -0.00959              0.00000         *
 * Na        3      0.00000              0.00950              0.00000         *
 * Na        4      0.00000              0.00959              0.00000         *
 * Al        1      0.00000             -0.05463              0.00000         *
 * Al        2      0.00000             -0.05458              0.00000         *
 * Al        3      0.00000              0.05463              0.00000         *
 * Al        4      0.00000              0.05458              0.00000         *
 * Si        1     -0.00984             -0.11527             -0.02010         *
 * Si        2     -0.00991             -0.11519             -0.02011         *
 * Si        3      0.00984             -0.11527              0.02010         *
 * Si        4      0.00991             -0.11519              0.02011         *
 * Si        5      0.00984              0.11527              0.02010         *
 * Si        6      0.00991              0.11519              0.02011         *
 * Si        7     -0.00984              0.11527             -0.02010         *
 * Si        8     -0.00991              0.11519             -0.02011         *
 *                                                                            *
 ******************************************************************************
  
 +------------+-------------+-------------+-----------------+ <-- min BFGS
 |    Step    |   lambda    |   F.delta   |    enthalpy     | <-- min BFGS
 +------------+-------------+-------------+-----------------+ <-- min BFGS
 |  previous  |    0.000000 |    0.000457 |   -16835.269782 | <-- min BFGS
 | trial step |    1.000000 |    0.000313 |   -16835.280272 | <-- min BFGS
 |  line step |    3.168950 |   -0.000009 |   -16835.289309 | <-- min BFGS
 +------------+-------------+-------------+-----------------+ <-- min BFGS
  
 BFGS: finished iteration     1 with enthalpy= -1.68352893E+004 eV
  
 +-----------+-----------------+-----------------+------------+-----+ <-- BFGS
 | Parameter |      value      |    tolerance    |    units   | OK? | <-- BFGS
 +-----------+-----------------+-----------------+------------+-----+ <-- BFGS
 |  dE/ion   |   4.881648E-004 |   2.000000E-007 |         eV | No  | <-- BFGS
 |  |F|max   |   1.174219E-001 |   1.000000E-003 |       eV/A | No  | <-- BFGS
 |  |dR|max  |   6.579685E-003 |   1.000000E-003 |          A | No  | <-- BFGS
 +-----------+-----------------+-----------------+------------+-----+ <-- BFGS
  

================================================================================
 Starting BFGS iteration          2 ...
================================================================================
 
Writing model to jadeite_4_30_GPa_cij__3__5.check
  
 +------------+-------------+-------------+-----------------+ <-- min BFGS
 |    Step    |   lambda    |   F.delta   |    enthalpy     | <-- min BFGS
 +------------+-------------+-------------+-----------------+ <-- min BFGS
 |  previous  |    0.000000 |    0.000038 |   -16835.289309 | <-- min BFGS
 +------------+-------------+-------------+-----------------+ <-- min BFGS
  

--------------------------------------------------------------------------------
 BFGS: starting iteration         2 with trial guess (lambda=  1.000000)
--------------------------------------------------------------------------------
 
                           -------------------------------
                                     Cell Contents
                           -------------------------------
 
            xxxxxxxxxxxxxxxxxxxxxxxxxxxxxxxxxxxxxxxxxxxxxxxxxxxxxxxxxxxx
            x  Element    Atom        Fractional coordinates of atoms  x
            x            Number           u          v          w      x
            x----------------------------------------------------------x
            x  O            1         0.109233   0.076815   0.129114   x
            x  O            2         0.609235   0.576814   0.129117   x
            x  O            3         0.890767   0.076815   0.370886   x
            x  O            4         0.390765   0.576814   0.370883   x
            x  O            5         0.890767   0.923185   0.870886   x
            x  O            6         0.390765   0.423186   0.870883   x
            x  O            7         0.109233   0.923185   0.629114   x
            x  O            8         0.609235   0.423186   0.629117   x
            x  O            9         0.360817   0.262993   0.295112   x
            x  O           10         0.860817   0.762994   0.295111   x
            x  O           11         0.639183   0.262993   0.204888   x
            x  O           12         0.139183   0.762994   0.204889   x
            x  O           13         0.639183   0.737007   0.704888   x
            x  O           14         0.139183   0.237006   0.704889   x
            x  O           15         0.360817   0.737007   0.795112   x
            x  O           16         0.860817   0.237006   0.795111   x
            x  O           17         0.353927   0.008352   1.004953   x
            x  O           18         0.853930   0.508349   1.004963   x
            x  O           19         0.646073   0.008352   0.495047   x
            x  O           20         0.146070   0.508349   0.495037   x
            x  O           21         0.646073   0.991648  -0.004953   x
            x  O           22         0.146070   0.491651  -0.004963   x
            x  O           23         0.353927   0.991648   0.504953   x
            x  O           24         0.853930   0.491651   0.504963   x
            x  Na           1         0.000000   0.301204   0.250000   x
            x  Na           2         0.500000   0.801208   0.250000   x
            x  Na           3         0.000000   0.698796   0.750000   x
            x  Na           4         0.500000   0.198792   0.750000   x
            x  Al           1         0.000000   0.906077   0.250000   x
            x  Al           2         0.500000   0.406078   0.250000   x
            x  Al           3         0.000000   0.093923   0.750000   x
            x  Al           4         0.500000   0.593922   0.750000   x
            x  Si           1         0.291264   0.094222   0.228400   x
            x  Si           2         0.791265   0.594221   0.228405   x
            x  Si           3         0.708736   0.094222   0.271600   x
            x  Si           4         0.208735   0.594221   0.271595   x
            x  Si           5         0.708736   0.905778   0.771600   x
            x  Si           6         0.208735   0.405779   0.771595   x
            x  Si           7         0.291264   0.905778   0.728400   x
            x  Si           8         0.791265   0.405779   0.728405   x
            xxxxxxxxxxxxxxxxxxxxxxxxxxxxxxxxxxxxxxxxxxxxxxxxxxxxxxxxxxxx
 
 
------------------------------------------------------------------------ <-- SCF
SCF loop      Energy                           Energy gain       Timer   <-- SCF
                                               per atom          (sec)   <-- SCF
------------------------------------------------------------------------ <-- SCF
Initial  -1.68461852E+004                                        267.57  <-- SCF
      1  -1.68461871E+004                    4.77147310E-005     283.25  <-- SCF
      2  -1.68461871E+004                    2.38956338E-008     295.94  <-- SCF
      3  -1.68461871E+004                    1.97292826E-010     308.75  <-- SCF
      4  -1.68461871E+004                    4.02164915E-012     323.81  <-- SCF
------------------------------------------------------------------------ <-- SCF
 
Final energy =  -16846.18707598     eV
(energy not corrected for finite basis set)
 
 
 *********************************** Forces ***********************************
 *                                                                            *
 *                        Cartesian components (eV/A)                         *
 * -------------------------------------------------------------------------- *
 *                   x                    y                    z              *
 *                                                                            *
 * O         1      0.03846             -0.03734             -0.02975         *
 * O         2      0.03832             -0.03729             -0.02978         *
 * O         3     -0.03846             -0.03734              0.02975         *
 * O         4     -0.03832             -0.03729              0.02978         *
 * O         5     -0.03846              0.03734              0.02975         *
 * O         6     -0.03832              0.03729              0.02978         *
 * O         7      0.03846              0.03734             -0.02975         *
 * O         8      0.03832              0.03729             -0.02978         *
 * O         9      0.02994             -0.05918             -0.03370         *
 * O        10      0.02998             -0.05921             -0.03368         *
 * O        11     -0.02994             -0.05918              0.03370         *
 * O        12     -0.02998             -0.05921              0.03368         *
 * O        13     -0.02994              0.05918              0.03370         *
 * O        14     -0.02998              0.05921              0.03368         *
 * O        15      0.02994              0.05918             -0.03370         *
 * O        16      0.02998              0.05921             -0.03368         *
 * O        17     -0.03232             -0.02521              0.01088         *
 * O        18     -0.03243             -0.02516              0.01083         *
 * O        19      0.03232             -0.02521             -0.01088         *
 * O        20      0.03243             -0.02516             -0.01083         *
 * O        21      0.03232              0.02521             -0.01088         *
 * O        22      0.03243              0.02516             -0.01083         *
 * O        23     -0.03232              0.02521              0.01088         *
 * O        24     -0.03243              0.02516              0.01083         *
 * Na        1      0.00000             -0.01113              0.00000         *
 * Na        2      0.00000             -0.01123              0.00000         *
 * Na        3      0.00000              0.01113              0.00000         *
 * Na        4      0.00000              0.01123              0.00000         *
 * Al        1      0.00000             -0.05480              0.00000         *
 * Al        2      0.00000             -0.05475              0.00000         *
 * Al        3      0.00000              0.05480              0.00000         *
 * Al        4      0.00000              0.05475              0.00000         *
 * Si        1     -0.00871             -0.09668             -0.01776         *
 * Si        2     -0.00879             -0.09662             -0.01777         *
 * Si        3      0.00871             -0.09668              0.01776         *
 * Si        4      0.00879             -0.09662              0.01777         *
 * Si        5      0.00871              0.09668              0.01776         *
 * Si        6      0.00879              0.09662              0.01777         *
 * Si        7     -0.00871              0.09668             -0.01776         *
 * Si        8     -0.00879              0.09662             -0.01777         *
 *                                                                            *
 ******************************************************************************
  
 +------------+-------------+-------------+-----------------+ <-- min BFGS
 |    Step    |   lambda    |   F.delta   |    enthalpy     | <-- min BFGS
 +------------+-------------+-------------+-----------------+ <-- min BFGS
 |  previous  |    0.000000 |    0.000038 |   -16835.289309 | <-- min BFGS
 | trial step |    1.000000 |    0.000034 |   -16835.290294 | <-- min BFGS
 +------------+-------------+-------------+-----------------+ <-- min BFGS
  

--------------------------------------------------------------------------------
 BFGS: improving iteration         2 with line minimization (lambda= 10.783135)
--------------------------------------------------------------------------------
 
                           -------------------------------
                                     Cell Contents
                           -------------------------------
 
            xxxxxxxxxxxxxxxxxxxxxxxxxxxxxxxxxxxxxxxxxxxxxxxxxxxxxxxxxxxx
            x  Element    Atom        Fractional coordinates of atoms  x
            x            Number           u          v          w      x
            x----------------------------------------------------------x
            x  O            1         0.109464   0.076607   0.128958   x
            x  O            2         0.609465   0.576606   0.128960   x
            x  O            3         0.890536   0.076607   0.371042   x
            x  O            4         0.390535   0.576606   0.371040   x
            x  O            5         0.890536   0.923393   0.871042   x
            x  O            6         0.390535   0.423394   0.871040   x
            x  O            7         0.109464   0.923393   0.628958   x
            x  O            8         0.609465   0.423394   0.628960   x
            x  O            9         0.360951   0.262601   0.294863   x
            x  O           10         0.860951   0.762601   0.294863   x
            x  O           11         0.639049   0.262601   0.205137   x
            x  O           12         0.139049   0.762601   0.205137   x
            x  O           13         0.639049   0.737399   0.705137   x
            x  O           14         0.139049   0.237399   0.705137   x
            x  O           15         0.360951   0.737399   0.794863   x
            x  O           16         0.860951   0.237399   0.794863   x
            x  O           17         0.353715   0.008206   1.004947   x
            x  O           18         0.853717   0.508203   1.004956   x
            x  O           19         0.646285   0.008206   0.495053   x
            x  O           20         0.146283   0.508203   0.495044   x
            x  O           21         0.646285   0.991794  -0.004947   x
            x  O           22         0.146283   0.491797  -0.004956   x
            x  O           23         0.353715   0.991794   0.504947   x
            x  O           24         0.853717   0.491797   0.504956   x
            x  Na           1         0.000000   0.301150   0.250000   x
            x  Na           2         0.500000   0.801154   0.250000   x
            x  Na           3         0.000000   0.698850   0.750000   x
            x  Na           4         0.500000   0.198846   0.750000   x
            x  Al           1         0.000000   0.905764   0.250000   x
            x  Al           2         0.500000   0.405765   0.250000   x
            x  Al           3         0.000000   0.094236   0.750000   x
            x  Al           4         0.500000   0.594235   0.750000   x
            x  Si           1         0.291262   0.093661   0.228233   x
            x  Si           2         0.791263   0.593660   0.228238   x
            x  Si           3         0.708738   0.093661   0.271767   x
            x  Si           4         0.208737   0.593660   0.271762   x
            x  Si           5         0.708738   0.906339   0.771767   x
            x  Si           6         0.208737   0.406340   0.771762   x
            x  Si           7         0.291262   0.906339   0.728233   x
            x  Si           8         0.791263   0.406340   0.728238   x
            xxxxxxxxxxxxxxxxxxxxxxxxxxxxxxxxxxxxxxxxxxxxxxxxxxxxxxxxxxxx
 
 
------------------------------------------------------------------------ <-- SCF
SCF loop      Energy                           Energy gain       Timer   <-- SCF
                                               per atom          (sec)   <-- SCF
------------------------------------------------------------------------ <-- SCF
Initial  -1.68460581E+004                                        328.98  <-- SCF
      1  -1.68461916E+004                    3.33673725E-003     341.27  <-- SCF
      2  -1.68461917E+004                    1.70282000E-006     353.34  <-- SCF
      3  -1.68461917E+004                    1.32755412E-008     364.59  <-- SCF
      4  -1.68461917E+004                    2.71306639E-010     376.54  <-- SCF
      5  -1.68461917E+004                    7.34724363E-012     390.30  <-- SCF
------------------------------------------------------------------------ <-- SCF
 
Final energy =  -16846.19165913     eV
(energy not corrected for finite basis set)
 
 
 *********************************** Forces ***********************************
 *                                                                            *
 *                        Cartesian components (eV/A)                         *
 * -------------------------------------------------------------------------- *
 *                   x                    y                    z              *
 *                                                                            *
 * O         1     -0.03799             -0.04888             -0.01673         *
 * O         2     -0.03794             -0.04881             -0.01674         *
 * O         3      0.03799             -0.04888              0.01673         *
 * O         4      0.03794             -0.04881              0.01674         *
 * O         5      0.03799              0.04888              0.01673         *
 * O         6      0.03794              0.04881              0.01674         *
 * O         7     -0.03799              0.04888             -0.01673         *
 * O         8     -0.03794              0.04881             -0.01674         *
 * O         9      0.01229             -0.08248             -0.02552         *
 * O        10      0.01234             -0.08243             -0.02550         *
 * O        11     -0.01229             -0.08248              0.02552         *
 * O        12     -0.01234             -0.08243              0.02550         *
 * O        13     -0.01229              0.08248              0.02552         *
 * O        14     -0.01234              0.08243              0.02550         *
 * O        15      0.01229              0.08248             -0.02552         *
 * O        16      0.01234              0.08243             -0.02550         *
 * O        17      0.03532             -0.02810             -0.01208         *
 * O        18      0.03520             -0.02808             -0.01213         *
 * O        19     -0.03532             -0.02810              0.01208         *
 * O        20     -0.03520             -0.02808              0.01213         *
 * O        21     -0.03532              0.02810              0.01208         *
 * O        22     -0.03520              0.02808              0.01213         *
 * O        23      0.03532              0.02810             -0.01208         *
 * O        24      0.03520              0.02808             -0.01213         *
 * Na        1      0.00000             -0.02710              0.00000         *
 * Na        2      0.00000             -0.02719              0.00000         *
 * Na        3      0.00000              0.02710              0.00000         *
 * Na        4      0.00000              0.02719              0.00000         *
 * Al        1      0.00000             -0.05653              0.00000         *
 * Al        2      0.00000             -0.05653              0.00000         *
 * Al        3      0.00000              0.05653              0.00000         *
 * Al        4      0.00000              0.05653              0.00000         *
 * Si        1      0.00267              0.08482              0.00537         *
 * Si        2      0.00253              0.08472              0.00534         *
 * Si        3     -0.00267              0.08482             -0.00537         *
 * Si        4     -0.00253              0.08472             -0.00534         *
 * Si        5     -0.00267             -0.08482             -0.00537         *
 * Si        6     -0.00253             -0.08472             -0.00534         *
 * Si        7      0.00267             -0.08482              0.00537         *
 * Si        8      0.00253             -0.08472              0.00534         *
 *                                                                            *
 ******************************************************************************
  
 +------------+-------------+-------------+-----------------+ <-- min BFGS
 |    Step    |   lambda    |   F.delta   |    enthalpy     | <-- min BFGS
 +------------+-------------+-------------+-----------------+ <-- min BFGS
 |  previous  |    0.000000 |    0.000038 |   -16835.289309 | <-- min BFGS
 | trial step |    1.000000 |    0.000034 |   -16835.290294 | <-- min BFGS
 |  line step |   10.783135 |    0.000000 |   -16835.294877 | <-- min BFGS
 +------------+-------------+-------------+-----------------+ <-- min BFGS
  
 BFGS: finished iteration     2 with enthalpy= -1.68352949E+004 eV
  
 +-----------+-----------------+-----------------+------------+-----+ <-- BFGS
 | Parameter |      value      |    tolerance    |    units   | OK? | <-- BFGS
 +-----------+-----------------+-----------------+------------+-----+ <-- BFGS
 |  dE/ion   |   1.392064E-004 |   2.000000E-007 |         eV | No  | <-- BFGS
 |  |F|max   |   8.720804E-002 |   1.000000E-003 |       eV/A | No  | <-- BFGS
 |  |dR|max  |   5.443155E-003 |   1.000000E-003 |          A | No  | <-- BFGS
 +-----------+-----------------+-----------------+------------+-----+ <-- BFGS
  

================================================================================
 Starting BFGS iteration          3 ...
================================================================================
 
Writing model to jadeite_4_30_GPa_cij__3__5.check
  
 +------------+-------------+-------------+-----------------+ <-- min BFGS
 |    Step    |   lambda    |   F.delta   |    enthalpy     | <-- min BFGS
 +------------+-------------+-------------+-----------------+ <-- min BFGS
 |  previous  |    0.000000 |    0.000070 |   -16835.294877 | <-- min BFGS
 +------------+-------------+-------------+-----------------+ <-- min BFGS
  

--------------------------------------------------------------------------------
 BFGS: starting iteration         3 with trial guess (lambda=  1.000000)
--------------------------------------------------------------------------------
 
                           -------------------------------
                                     Cell Contents
                           -------------------------------
 
            xxxxxxxxxxxxxxxxxxxxxxxxxxxxxxxxxxxxxxxxxxxxxxxxxxxxxxxxxxxx
            x  Element    Atom        Fractional coordinates of atoms  x
            x            Number           u          v          w      x
            x----------------------------------------------------------x
            x  O            1         0.109483   0.076521   0.128889   x
            x  O            2         0.609484   0.576520   0.128891   x
            x  O            3         0.890517   0.076521   0.371111   x
            x  O            4         0.390516   0.576520   0.371109   x
            x  O            5         0.890517   0.923479   0.871111   x
            x  O            6         0.390516   0.423480   0.871109   x
            x  O            7         0.109483   0.923479   0.628889   x
            x  O            8         0.609484   0.423480   0.628891   x
            x  O            9         0.360954   0.262378   0.294759   x
            x  O           10         0.860953   0.762378   0.294758   x
            x  O           11         0.639046   0.262378   0.205241   x
            x  O           12         0.139047   0.762378   0.205242   x
            x  O           13         0.639046   0.737622   0.705241   x
            x  O           14         0.139047   0.237622   0.705242   x
            x  O           15         0.360954   0.737622   0.794759   x
            x  O           16         0.860953   0.237622   0.794758   x
            x  O           17         0.353678   0.008146   1.004931   x
            x  O           18         0.853681   0.508143   1.004940   x
            x  O           19         0.646322   0.008146   0.495069   x
            x  O           20         0.146319   0.508143   0.495060   x
            x  O           21         0.646322   0.991854  -0.004931   x
            x  O           22         0.146319   0.491857  -0.004940   x
            x  O           23         0.353678   0.991854   0.504931   x
            x  O           24         0.853681   0.491857   0.504940   x
            x  Na           1         0.000000   0.301121   0.250000   x
            x  Na           2         0.500000   0.801125   0.250000   x
            x  Na           3         0.000000   0.698879   0.750000   x
            x  Na           4         0.500000   0.198875   0.750000   x
            x  Al           1         0.000000   0.905645   0.250000   x
            x  Al           2         0.500000   0.405645   0.250000   x
            x  Al           3         0.000000   0.094355   0.750000   x
            x  Al           4         0.500000   0.594355   0.750000   x
            x  Si           1         0.291315   0.093651   0.228246   x
            x  Si           2         0.791316   0.593651   0.228251   x
            x  Si           3         0.708685   0.093651   0.271754   x
            x  Si           4         0.208684   0.593651   0.271749   x
            x  Si           5         0.708685   0.906349   0.771754   x
            x  Si           6         0.208684   0.406349   0.771749   x
            x  Si           7         0.291315   0.906349   0.728246   x
            x  Si           8         0.791316   0.406349   0.728251   x
            xxxxxxxxxxxxxxxxxxxxxxxxxxxxxxxxxxxxxxxxxxxxxxxxxxxxxxxxxxxx
 
 
------------------------------------------------------------------------ <-- SCF
SCF loop      Energy                           Energy gain       Timer   <-- SCF
                                               per atom          (sec)   <-- SCF
------------------------------------------------------------------------ <-- SCF
Initial  -1.68461667E+004                                        396.64  <-- SCF
      1  -1.68461929E+004                    6.57204863E-004     409.91  <-- SCF
      2  -1.68461930E+004                    2.60918100E-007     422.06  <-- SCF
      3  -1.68461930E+004                    2.38499262E-009     433.81  <-- SCF
      4  -1.68461930E+004                    5.13533660E-011     446.58  <-- SCF
------------------------------------------------------------------------ <-- SCF
 
Final energy =  -16846.19295963     eV
(energy not corrected for finite basis set)
 
 
 *********************************** Forces ***********************************
 *                                                                            *
 *                        Cartesian components (eV/A)                         *
 * -------------------------------------------------------------------------- *
 *                   x                    y                    z              *
 *                                                                            *
 * O         1     -0.03452             -0.04258             -0.01678         *
 * O         2     -0.03446             -0.04251             -0.01677         *
 * O         3      0.03452             -0.04258              0.01678         *
 * O         4      0.03446             -0.04251              0.01677         *
 * O         5      0.03452              0.04258              0.01678         *
 * O         6      0.03446              0.04251              0.01677         *
 * O         7     -0.03452              0.04258             -0.01678         *
 * O         8     -0.03446              0.04251             -0.01677         *
 * O         9      0.03941             -0.01789             -0.02234         *
 * O        10      0.03943             -0.01788             -0.02231         *
 * O        11     -0.03941             -0.01789              0.02234         *
 * O        12     -0.03943             -0.01788              0.02231         *
 * O        13     -0.03941              0.01789              0.02234         *
 * O        14     -0.03943              0.01788              0.02231         *
 * O        15      0.03941              0.01789             -0.02234         *
 * O        16      0.03943              0.01788             -0.02231         *
 * O        17      0.04367             -0.02080             -0.00742         *
 * O        18      0.04354             -0.02078             -0.00748         *
 * O        19     -0.04367             -0.02080              0.00742         *
 * O        20     -0.04354             -0.02078              0.00748         *
 * O        21     -0.04367              0.02080              0.00742         *
 * O        22     -0.04354              0.02078              0.00748         *
 * O        23      0.04367              0.02080             -0.00742         *
 * O        24      0.04354              0.02078             -0.00748         *
 * Na        1      0.00000             -0.02814              0.00000         *
 * Na        2      0.00000             -0.02822              0.00000         *
 * Na        3      0.00000              0.02814              0.00000         *
 * Na        4      0.00000              0.02822              0.00000         *
 * Al        1      0.00000             -0.04626              0.00000         *
 * Al        2      0.00000             -0.04629              0.00000         *
 * Al        3      0.00000              0.04626              0.00000         *
 * Al        4      0.00000              0.04629              0.00000         *
 * Si        1     -0.03417              0.03859             -0.00325         *
 * Si        2     -0.03426              0.03850             -0.00328         *
 * Si        3      0.03417              0.03859              0.00325         *
 * Si        4      0.03426              0.03850              0.00328         *
 * Si        5      0.03417             -0.03859              0.00325         *
 * Si        6      0.03426             -0.03850              0.00328         *
 * Si        7     -0.03417             -0.03859             -0.00325         *
 * Si        8     -0.03426             -0.03850             -0.00328         *
 *                                                                            *
 ******************************************************************************
  
 +------------+-------------+-------------+-----------------+ <-- min BFGS
 |    Step    |   lambda    |   F.delta   |    enthalpy     | <-- min BFGS
 +------------+-------------+-------------+-----------------+ <-- min BFGS
 |  previous  |    0.000000 |    0.000070 |   -16835.294877 | <-- min BFGS
 | trial step |    1.000000 |    0.000025 |   -16835.296177 | <-- min BFGS
 +------------+-------------+-------------+-----------------+ <-- min BFGS
  

--------------------------------------------------------------------------------
 BFGS: improving iteration         3 with line minimization (lambda=  1.551456)
--------------------------------------------------------------------------------
 
                           -------------------------------
                                     Cell Contents
                           -------------------------------
 
            xxxxxxxxxxxxxxxxxxxxxxxxxxxxxxxxxxxxxxxxxxxxxxxxxxxxxxxxxxxx
            x  Element    Atom        Fractional coordinates of atoms  x
            x            Number           u          v          w      x
            x----------------------------------------------------------x
            x  O            1         0.109493   0.076473   0.128851   x
            x  O            2         0.609494   0.576472   0.128853   x
            x  O            3         0.890507   0.076473   0.371149   x
            x  O            4         0.390506   0.576472   0.371147   x
            x  O            5         0.890507   0.923527   0.871149   x
            x  O            6         0.390506   0.423528   0.871147   x
            x  O            7         0.109493   0.923527   0.628851   x
            x  O            8         0.609494   0.423528   0.628853   x
            x  O            9         0.360955   0.262255   0.294701   x
            x  O           10         0.860955   0.762255   0.294700   x
            x  O           11         0.639045   0.262255   0.205299   x
            x  O           12         0.139045   0.762255   0.205300   x
            x  O           13         0.639045   0.737745   0.705299   x
            x  O           14         0.139045   0.237745   0.705300   x
            x  O           15         0.360955   0.737745   0.794701   x
            x  O           16         0.860955   0.237745   0.794700   x
            x  O           17         0.353658   0.008113   1.004922   x
            x  O           18         0.853660   0.508110   1.004931   x
            x  O           19         0.646342   0.008113   0.495078   x
            x  O           20         0.146340   0.508110   0.495069   x
            x  O           21         0.646342   0.991887  -0.004922   x
            x  O           22         0.146340   0.491890  -0.004931   x
            x  O           23         0.353658   0.991887   0.504922   x
            x  O           24         0.853660   0.491890   0.504931   x
            x  Na           1         0.000000   0.301105   0.250000   x
            x  Na           2         0.500000   0.801109   0.250000   x
            x  Na           3         0.000000   0.698895   0.750000   x
            x  Na           4         0.500000   0.198891   0.750000   x
            x  Al           1         0.000000   0.905579   0.250000   x
            x  Al           2         0.500000   0.405580   0.250000   x
            x  Al           3         0.000000   0.094421   0.750000   x
            x  Al           4         0.500000   0.594420   0.750000   x
            x  Si           1         0.291345   0.093646   0.228253   x
            x  Si           2         0.791346   0.593645   0.228258   x
            x  Si           3         0.708655   0.093646   0.271747   x
            x  Si           4         0.208654   0.593645   0.271742   x
            x  Si           5         0.708655   0.906354   0.771747   x
            x  Si           6         0.208654   0.406355   0.771742   x
            x  Si           7         0.291345   0.906354   0.728253   x
            x  Si           8         0.791346   0.406355   0.728258   x
            xxxxxxxxxxxxxxxxxxxxxxxxxxxxxxxxxxxxxxxxxxxxxxxxxxxxxxxxxxxx
 
 
------------------------------------------------------------------------ <-- SCF
SCF loop      Energy                           Energy gain       Timer   <-- SCF
                                               per atom          (sec)   <-- SCF
------------------------------------------------------------------------ <-- SCF
Initial  -1.68461821E+004                                        451.81  <-- SCF
      1  -1.68461931E+004                    2.76415214E-004     463.26  <-- SCF
      2  -1.68461931E+004                    1.15498747E-007     474.23  <-- SCF
      3  -1.68461931E+004                    1.07192418E-009     486.07  <-- SCF
      4  -1.68461931E+004                    2.27377856E-011     499.25  <-- SCF
------------------------------------------------------------------------ <-- SCF
 
Final energy =  -16846.19314667     eV
(energy not corrected for finite basis set)
 
 
 *********************************** Forces ***********************************
 *                                                                            *
 *                        Cartesian components (eV/A)                         *
 * -------------------------------------------------------------------------- *
 *                   x                    y                    z              *
 *                                                                            *
 * O         1     -0.03261             -0.03911             -0.01681         *
 * O         2     -0.03255             -0.03904             -0.01680         *
 * O         3      0.03261             -0.03911              0.01681         *
 * O         4      0.03255             -0.03904              0.01680         *
 * O         5      0.03261              0.03911              0.01681         *
 * O         6      0.03255              0.03904              0.01680         *
 * O         7     -0.03261              0.03911             -0.01681         *
 * O         8     -0.03255              0.03904             -0.01680         *
 * O         9      0.05449              0.01800             -0.02058         *
 * O        10      0.05450              0.01799             -0.02055         *
 * O        11     -0.05449              0.01800              0.02058         *
 * O        12     -0.05450              0.01799              0.02055         *
 * O        13     -0.05449             -0.01800              0.02058         *
 * O        14     -0.05450             -0.01799              0.02055         *
 * O        15      0.05449             -0.01800             -0.02058         *
 * O        16      0.05450             -0.01799             -0.02055         *
 * O        17      0.04826             -0.01677             -0.00483         *
 * O        18      0.04813             -0.01676             -0.00489         *
 * O        19     -0.04826             -0.01677              0.00483         *
 * O        20     -0.04813             -0.01676              0.00489         *
 * O        21     -0.04826              0.01677              0.00483         *
 * O        22     -0.04813              0.01676              0.00489         *
 * O        23      0.04826              0.01677             -0.00483         *
 * O        24      0.04813              0.01676             -0.00489         *
 * Na        1      0.00000             -0.02872              0.00000         *
 * Na        2      0.00000             -0.02879              0.00000         *
 * Na        3      0.00000              0.02872              0.00000         *
 * Na        4      0.00000              0.02879              0.00000         *
 * Al        1      0.00000             -0.04059              0.00000         *
 * Al        2      0.00000             -0.04063              0.00000         *
 * Al        3      0.00000              0.04059              0.00000         *
 * Al        4      0.00000              0.04063              0.00000         *
 * Si        1     -0.05461              0.01282             -0.00804         *
 * Si        2     -0.05467              0.01274             -0.00807         *
 * Si        3      0.05461              0.01282              0.00804         *
 * Si        4      0.05467              0.01274              0.00807         *
 * Si        5      0.05461             -0.01282              0.00804         *
 * Si        6      0.05467             -0.01274              0.00807         *
 * Si        7     -0.05461             -0.01282             -0.00804         *
 * Si        8     -0.05467             -0.01274             -0.00807         *
 *                                                                            *
 ******************************************************************************
  
 +------------+-------------+-------------+-----------------+ <-- min BFGS
 |    Step    |   lambda    |   F.delta   |    enthalpy     | <-- min BFGS
 +------------+-------------+-------------+-----------------+ <-- min BFGS
 |  previous  |    0.000000 |    0.000070 |   -16835.294877 | <-- min BFGS
 | trial step |    1.000000 |    0.000025 |   -16835.296177 | <-- min BFGS
 |  line step |    1.551456 |    0.000000 |   -16835.296364 | <-- min BFGS
 +------------+-------------+-------------+-----------------+ <-- min BFGS
  
 BFGS: finished iteration     3 with enthalpy= -1.68352964E+004 eV
  
 +-----------+-----------------+-----------------+------------+-----+ <-- BFGS
 | Parameter |      value      |    tolerance    |    units   | OK? | <-- BFGS
 +-----------+-----------------+-----------------+------------+-----+ <-- BFGS
 |  dE/ion   |   3.718857E-005 |   2.000000E-007 |         eV | No  | <-- BFGS
 |  |F|max   |   6.096680E-002 |   1.000000E-003 |       eV/A | No  | <-- BFGS
 |  |dR|max  |   3.115118E-003 |   1.000000E-003 |          A | No  | <-- BFGS
 +-----------+-----------------+-----------------+------------+-----+ <-- BFGS
  

================================================================================
 Starting BFGS iteration          4 ...
================================================================================
 
[...]
            x  O           20         0.145968   0.507318   0.494527   x
            x  O           21         0.645969   0.992682  -0.005473   x
            x  O           22         0.145968   0.492682  -0.005473   x
            x  O           23         0.354031   0.992682   0.505473   x
            x  O           24         0.854032   0.492682   0.505473   x
            x  Na           1         0.000000   0.300109   0.250000   x
            x  Na           2         0.500000   0.800109   0.250000   x
            x  Na           3         0.000000   0.699891   0.750000   x
            x  Na           4         0.500000   0.199891   0.750000   x
            x  Al           1         0.000000   0.905261   0.250000   x
            x  Al           2         0.500000   0.405262   0.250000   x
            x  Al           3         0.000000   0.094739   0.750000   x
            x  Al           4         0.500000   0.594738   0.750000   x
            x  Si           1         0.291267   0.093504   0.227718   x
            x  Si           2         0.791267   0.593502   0.227718   x
            x  Si           3         0.708733   0.093504   0.272282   x
            x  Si           4         0.208733   0.593502   0.272282   x
            x  Si           5         0.708733   0.906496   0.772282   x
            x  Si           6         0.208733   0.406498   0.772282   x
            x  Si           7         0.291267   0.906496   0.727718   x
            x  Si           8         0.791267   0.406498   0.727718   x
            xxxxxxxxxxxxxxxxxxxxxxxxxxxxxxxxxxxxxxxxxxxxxxxxxxxxxxxxxxxx
 
 
 BFGS: Final Enthalpy     = -1.68353001E+004 eV
 BFGS: Final <frequency>  =    1023.14921 cm-1
 
 ***************************** Symmetrised Forces *****************************
 *                                                                            *
 *                        Cartesian components (eV/A)                         *
 * -------------------------------------------------------------------------- *
 *                   x                    y                    z              *
 *                                                                            *
 * O         1      0.00036             -0.00039             -0.00011         *
 * O         2     -0.00004             -0.00051             -0.00013         *
 * O         3     -0.00036             -0.00039              0.00011         *
 * O         4      0.00004             -0.00051              0.00013         *
 * O         5     -0.00036              0.00039              0.00011         *
 * O         6      0.00004              0.00051              0.00013         *
 * O         7      0.00036              0.00039             -0.00011         *
 * O         8     -0.00004              0.00051             -0.00013         *
 * O         9      0.00050              0.00058              0.00035         *
 * O        10     -0.00002             -0.00043              0.00034         *
 * O        11     -0.00050              0.00058             -0.00035         *
 * O        12      0.00002             -0.00043             -0.00034         *
 * O        13     -0.00050             -0.00058             -0.00035         *
 * O        14      0.00002              0.00043             -0.00034         *
 * O        15      0.00050             -0.00058              0.00035         *
 * O        16     -0.00002              0.00043              0.00034         *
 * O        17     -0.00033             -0.00027              0.00029         *
 * O        18     -0.00040             -0.00029              0.00024         *
 * O        19      0.00033             -0.00027             -0.00029         *
 * O        20      0.00040             -0.00029             -0.00024         *
 * O        21      0.00033              0.00027             -0.00029         *
 * O        22      0.00040              0.00029             -0.00024         *
 * O        23     -0.00033              0.00027              0.00029         *
 * O        24     -0.00040              0.00029              0.00024         *
 * Na        1      0.00000             -0.00081              0.00000         *
 * Na        2      0.00000             -0.00071              0.00000         *
 * Na        3      0.00000              0.00081              0.00000         *
 * Na        4      0.00000              0.00071              0.00000         *
 * Al        1      0.00000              0.00054              0.00000         *
 * Al        2      0.00000              0.00031              0.00000         *
 * Al        3      0.00000             -0.00054              0.00000         *
 * Al        4      0.00000             -0.00031              0.00000         *
 * Si        1     -0.00029             -0.00038              0.00008         *
 * Si        2      0.00053              0.00075              0.00019         *
 * Si        3      0.00029             -0.00038             -0.00008         *
 * Si        4     -0.00053              0.00075             -0.00019         *
 * Si        5      0.00029              0.00038             -0.00008         *
 * Si        6     -0.00053             -0.00075             -0.00019         *
 * Si        7     -0.00029              0.00038              0.00008         *
 * Si        8      0.00053             -0.00075              0.00019         *
 *                                                                            *
 ******************************************************************************
 
 *********** Symmetrised Stress Tensor ***********
 *                                               *
 *          Cartesian components (GPa)           *
 * --------------------------------------------- *
 *             x             y             z     *
 *                                               *
 *  x     -3.055195      0.000000      0.157207  *
 *  y      0.000000     -1.183951      0.000000  *
 *  z      0.157207      0.000000     -3.158811  *
 *                                               *
 *  Pressure:    2.4660                          *
 *                                               *
 *************************************************
 
 Pseudo atomic calculation performed for O 2s2 2p4
 
 Converged in 36 iterations to a total energy of -429.6485 eV
 
 
 Pseudo atomic calculation performed for Na 2s2 2p6 3s1
 
 Converged in 33 iterations to a total energy of -1302.8467 eV
 
 
 Pseudo atomic calculation performed for Al 3s2 3p1
 
 Converged in 20 iterations to a total energy of -52.7392 eV
 
 
 Pseudo atomic calculation performed for Si 3s2 3p2
 
 Converged in 21 iterations to a total energy of -101.9044 eV
 
Charge spilling parameter for spin component 1 = 0.85%
 
     Atomic Populations (Mulliken)
     -----------------------------
Species   Ion     s      p      d      f     Total  Charge (e)
==============================================================
  O        1     1.85   5.24   0.00   0.00   7.08    -1.08
  O        2     1.85   5.24   0.00   0.00   7.08    -1.08
  O        3     1.85   5.24   0.00   0.00   7.08    -1.08
  O        4     1.85   5.24   0.00   0.00   7.08    -1.08
  O        5     1.85   5.24   0.00   0.00   7.08    -1.08
  O        6     1.85   5.24   0.00   0.00   7.08    -1.08
  O        7     1.85   5.24   0.00   0.00   7.08    -1.08
  O        8     1.85   5.24   0.00   0.00   7.08    -1.08
  O        9     1.84   5.29   0.00   0.00   7.12    -1.12
  O       10     1.84   5.29   0.00   0.00   7.12    -1.12
  O       11     1.84   5.29   0.00   0.00   7.12    -1.12
  O       12     1.84   5.29   0.00   0.00   7.12    -1.12
  O       13     1.84   5.29   0.00   0.00   7.12    -1.12
  O       14     1.84   5.29   0.00   0.00   7.12    -1.12
  O       15     1.84   5.29   0.00   0.00   7.12    -1.12
  O       16     1.84   5.29   0.00   0.00   7.12    -1.12
  O       17     1.83   5.30   0.00   0.00   7.12    -1.12
  O       18     1.83   5.30   0.00   0.00   7.12    -1.12
  O       19     1.83   5.30   0.00   0.00   7.12    -1.12
  O       20     1.83   5.30   0.00   0.00   7.12    -1.12
  O       21     1.83   5.30   0.00   0.00   7.12    -1.12
  O       22     1.83   5.30   0.00   0.00   7.12    -1.12
  O       23     1.83   5.30   0.00   0.00   7.12    -1.12
  O       24     1.83   5.30   0.00   0.00   7.12    -1.12
  Na       1     2.04   5.78   0.00   0.00   7.82     1.18
  Na       2     2.04   5.78   0.00   0.00   7.82     1.18
  Na       3     2.04   5.78   0.00   0.00   7.82     1.18
  Na       4     2.04   5.78   0.00   0.00   7.82     1.18
  Al       1     0.51   0.91   0.00   0.00   1.43     1.57
  Al       2     0.51   0.92   0.00   0.00   1.43     1.57
  Al       3     0.51   0.91   0.00   0.00   1.43     1.57
  Al       4     0.51   0.92   0.00   0.00   1.43     1.57
  Si       1     0.69   1.36   0.00   0.00   2.05     1.95
  Si       2     0.69   1.36   0.00   0.00   2.05     1.95
  Si       3     0.69   1.36   0.00   0.00   2.05     1.95
  Si       4     0.69   1.36   0.00   0.00   2.05     1.95
  Si       5     0.69   1.36   0.00   0.00   2.05     1.95
  Si       6     0.69   1.36   0.00   0.00   2.05     1.95
  Si       7     0.69   1.36   0.00   0.00   2.05     1.95
  Si       8     0.69   1.36   0.00   0.00   2.05     1.95
==============================================================
 
     Bond                     Population      Length (A)
============================================================
   O 015 --   Si 007               0.76        1.59610
   O 013 --   Si 005               0.76        1.59610
   O 009 --   Si 001               0.76        1.59610
   O 011 --   Si 003               0.76        1.59610
   O 010 --   Si 002               0.76        1.59612
   O 012 --   Si 004               0.76        1.59612
   O 016 --   Si 008               0.76        1.59612
   O 014 --   Si 006               0.76        1.59612
   O 018 --   Si 002               0.56        1.63224
   O 024 --   Si 008               0.56        1.63224
   O 020 --   Si 004               0.56        1.63224
   O 022 --   Si 006               0.56        1.63224
   O 019 --   Si 003               0.56        1.63225
   O 017 --   Si 001               0.56        1.63225
   O 023 --   Si 007               0.56        1.63225
   O 021 --   Si 005               0.56        1.63225
   O 006 --   Si 006               0.59        1.64005
   O 004 --   Si 004               0.59        1.64005
   O 008 --   Si 008               0.59        1.64005
   O 002 --   Si 002               0.59        1.64005
   O 003 --   Si 003               0.59        1.64006
   O 005 --   Si 005               0.59        1.64006
   O 001 --   Si 001               0.59        1.64006
   O 007 --   Si 007               0.59        1.64006
   O 020 --   Si 006               0.58        1.64283
   O 018 --   Si 008               0.58        1.64283
   O 024 --   Si 002               0.58        1.64283
   O 022 --   Si 004               0.58        1.64283
   O 017 --   Si 007               0.58        1.64283
   O 023 --   Si 001               0.58        1.64283
   O 021 --   Si 003               0.58        1.64283
   O 019 --   Si 005               0.58        1.64283
   O 014 --   Al 003               0.42        1.86454
   O 016 --   Al 003               0.42        1.86454
   O 012 --   Al 001               0.42        1.86454
   O 010 --   Al 001               0.42        1.86454
   O 015 --   Al 004               0.42        1.86455
   O 013 --   Al 004               0.42        1.86455
   O 011 --   Al 002               0.42        1.86455
   O 009 --   Al 002               0.42        1.86455
   O 005 --   Al 001               0.33        1.94145
   O 003 --   Al 003               0.33        1.94145
   O 001 --   Al 003               0.33        1.94145
   O 007 --   Al 001               0.33        1.94145
   O 006 --   Al 002               0.33        1.94145
   O 004 --   Al 004               0.33        1.94145
   O 002 --   Al 004               0.33        1.94145
   O 008 --   Al 002               0.33        1.94145
   O 002 --   Al 002               0.31        2.01018
   O 004 --   Al 002               0.31        2.01018
   O 008 --   Al 004               0.31        2.01018
   O 006 --   Al 004               0.31        2.01018
   O 007 --   Al 003               0.31        2.01018
   O 001 --   Al 001               0.31        2.01018
   O 005 --   Al 003               0.31        2.01018
   O 003 --   Al 001               0.31        2.01018
   O 007 --   Na 003              -0.01        2.37219
   O 005 --   Na 003              -0.01        2.37219
   O 001 --   Na 001              -0.01        2.37219
   O 003 --   Na 001              -0.01        2.37219
   O 008 --   Na 004              -0.01        2.37219
   O 006 --   Na 004              -0.01        2.37219
   O 002 --   Na 002              -0.01        2.37219
   O 004 --   Na 002              -0.01        2.37219
   O 018 --   Na 001              -0.04        2.38422
   O 024 --   Na 003              -0.04        2.38422
   O 020 --   Na 001              -0.04        2.38422
   O 022 --   Na 003              -0.04        2.38422
   O 019 --   Na 002              -0.04        2.38422
   O 017 --   Na 002              -0.04        2.38422
   O 021 --   Na 004              -0.04        2.38422
   O 023 --   Na 004              -0.04        2.38422
   O 012 --   Na 003              -0.05        2.40949
   O 010 --   Na 003              -0.05        2.40949
   O 016 --   Na 001              -0.05        2.40949
   O 014 --   Na 001              -0.05        2.40949
   O 011 --   Na 004              -0.05        2.40949
   O 009 --   Na 004              -0.05        2.40949
   O 015 --   Na 002              -0.05        2.40949
   O 013 --   Na 002              -0.05        2.40949
   O 001 --    O 005              -0.10        2.47296
   O 003 --    O 007              -0.10        2.47296
   O 004 --    O 008              -0.10        2.47296
   O 002 --    O 006              -0.10        2.47296
   O 015 --    O 017              -0.10        2.59190
   O 013 --    O 019              -0.10        2.59190
   O 011 --    O 021              -0.10        2.59190
   O 009 --    O 023              -0.10        2.59190
   O 010 --    O 024              -0.10        2.59191
   O 012 --    O 022              -0.10        2.59191
   O 014 --    O 020              -0.10        2.59191
   O 016 --    O 018              -0.10        2.59191
   O 018 --    O 024              -0.17        2.61304
   O 020 --    O 022              -0.17        2.61304
   O 019 --    O 021              -0.17        2.61304
   O 017 --    O 023              -0.17        2.61304
   O 006 --    O 022              -0.09        2.63786
   O 004 --    O 020              -0.09        2.63786
   O 002 --    O 018              -0.09        2.63786
   O 008 --    O 024              -0.09        2.63786
   O 003 --    O 019              -0.09        2.63786
   O 005 --    O 021              -0.09        2.63786
   O 001 --    O 017              -0.09        2.63786
   O 007 --    O 023              -0.09        2.63786
   O 006 --    O 020              -0.08        2.64048
   O 004 --    O 022              -0.08        2.64048
   O 002 --    O 024              -0.08        2.64048
   O 008 --    O 018              -0.08        2.64048
   O 007 --    O 017              -0.08        2.64048
   O 001 --    O 023              -0.08        2.64048
   O 005 --    O 019              -0.08        2.64048
   O 003 --    O 021              -0.08        2.64048
   O 013 --    O 021              -0.08        2.65975
   O 015 --    O 023              -0.08        2.65975
   O 011 --    O 019              -0.08        2.65975
   O 009 --    O 017              -0.08        2.65975
   O 010 --    O 018              -0.08        2.65976
   O 014 --    O 022              -0.08        2.65976
   O 012 --    O 020              -0.08        2.65976
   O 016 --    O 024              -0.08        2.65976
   O 003 --    O 016              -0.07        2.69527
   O 001 --    O 014              -0.07        2.69527
   O 007 --    O 012              -0.07        2.69527
   O 005 --    O 010              -0.07        2.69527
   O 006 --    O 009              -0.07        2.69528
   O 004 --    O 015              -0.07        2.69528
   O 002 --    O 013              -0.07        2.69528
   O 008 --    O 011              -0.07        2.69528
   O 005 --    O 007              -0.05        2.72541
   O 001 --    O 003              -0.05        2.72541
   O 006 --    O 008              -0.05        2.72542
   O 002 --    O 004              -0.05        2.72542
   O 023 --   Na 002              -0.02        2.74779
   O 021 --   Na 002              -0.02        2.74779
   O 017 --   Na 004              -0.02        2.74779
   O 019 --   Na 004              -0.02        2.74779
   O 024 --   Na 001              -0.02        2.74779
   O 022 --   Na 001              -0.02        2.74779
   O 020 --   Na 003              -0.02        2.74779
   O 018 --   Na 003              -0.02        2.74779
   O 007 --    O 014              -0.05        2.74935
   O 005 --    O 016              -0.05        2.74935
   O 003 --    O 010              -0.05        2.74935
   O 001 --    O 012              -0.05        2.74935
   O 002 --    O 011              -0.05        2.74936
   O 004 --    O 009              -0.05        2.74936
   O 008 --    O 013              -0.05        2.74936
   O 006 --    O 015              -0.05        2.74936
   O 020 --    O 024              -0.04        2.76959
   O 018 --    O 022              -0.04        2.76959
   O 017 --    O 021              -0.04        2.76959
   O 019 --    O 023              -0.04        2.76959
   O 007 --    O 015              -0.06        2.78084
   O 005 --    O 013              -0.06        2.78084
   O 003 --    O 011              -0.06        2.78084
   O 001 --    O 009              -0.06        2.78084
   O 006 --    O 014              -0.06        2.78085
   O 004 --    O 012              -0.06        2.78085
   O 008 --    O 016              -0.06        2.78085
   O 002 --    O 010              -0.06        2.78085
   O 014 --    O 016              -0.05        2.78555
   O 010 --    O 012              -0.05        2.78555
   O 013 --    O 015              -0.05        2.78556
   O 009 --    O 011              -0.05        2.78556
   O 005 --    O 012              -0.04        2.83477
   O 003 --    O 014              -0.04        2.83477
   O 001 --    O 016              -0.04        2.83477
   O 007 --    O 010              -0.04        2.83477
   O 008 --    O 009              -0.04        2.83478
   O 006 --    O 011              -0.04        2.83478
   O 002 --    O 015              -0.04        2.83478
   O 004 --    O 013              -0.04        2.83478
   O 004 --    O 006              -0.06        2.92235
   O 002 --    O 008              -0.06        2.92235
   O 001 --    O 007              -0.06        2.92235
   O 003 --    O 005              -0.06        2.92235
   O 016 --    O 019              -0.02        2.93732
   O 014 --    O 017              -0.02        2.93732
   O 010 --    O 021              -0.02        2.93732
   O 012 --    O 023              -0.02        2.93732
   O 015 --    O 020              -0.02        2.93733
   O 009 --    O 022              -0.02        2.93733
   O 011 --    O 024              -0.02        2.93733
   O 013 --    O 018              -0.02        2.93733
============================================================
 
 
Writing model to jadeite_4_30_GPa_cij__3__5.check
 
Writing analysis data to jadeite_4_30_GPa_cij__3__5.castep_bin
Initialisation time =      2.00 s
Calculation time    =   1715.74 s
Finalisation time   =      0.74 s
Total time          =   1718.48 s
Peak Memory Use     = 222680 kB
