 +-------------------------------------------------+
 |                                                 |
 |      CCC   AA    SSS  TTTTT  EEEEE  PPPP        |
 |     C     A  A  S       T    E      P   P       |
 |     C     AAAA   SS     T    EEE    PPPP        |
 |     C     A  A     S    T    E      P           |
 |      CCC  A  A  SSS     T    EEEEE  P           |
 |                                                 |
 +-------------------------------------------------+
 |                                                 |
 | Welcome to Academic Release CASTEP version 5.02 |
 | Ab Initio Total Energy Program                  |
 |                                                 |
 | Authors:                                        |
 | M. Segall, M. Probert, C. Pickard, P. Hasnip,   |
 | S. Clark, K. Refson, M. Payne                   |
 |                                                 |
 | Contributors:                                   |
 | P. Lindan, P. Haynes, J. White, V. Milman,      |
 | N. Govind, M. Gibson, P. Tulip, V. Cocula,      |
 | B. Montanari, D. Quigley, M. Glover,            |
 | L. Bernasconi, A. Perlov, M. Plummer            |
 |                                                 |
 | Copyright (c) 2000 - 2009                       |
 |                                                 |
 |     Distributed under the terms of an           |
 |     Agreement between the United Kingdom        |
 |     Car-Parrinello (UKCP) Consortium,           |
 |     Daresbury Laboratory and Accelrys, Inc.     |
 |                                                 |
 | Please cite                                     |
 |                                                 |
 |     "First principles methods using CASTEP"     |
 |                                                 |
 |         Zeitschrift fuer Kristallographie       |
 |           220(5-6) pp. 567-570 (2005)           |
 |                                                 |
 | S. J. Clark, M. D. Segall, C. J. Pickard,       |
 | P. J. Hasnip, M. J. Probert, K. Refson,         |
 | M. C. Payne                                     |
 |                                                 |
 |       in all publications arising from          |
 |              your use of CASTEP                 |
 |                                                 |
 +-------------------------------------------------+
 
 
 Pseudo atomic calculation performed for O 2s2 2p4
 
 Converged in 36 iterations to a total energy of -429.6485 eV
 
 
 Pseudo atomic calculation performed for Na 2s2 2p6 3s1
 
 Converged in 33 iterations to a total energy of -1302.8467 eV
 
 
 Pseudo atomic calculation performed for Al 3s2 3p1
 
 Converged in 20 iterations to a total energy of -52.7392 eV
 
 
 Pseudo atomic calculation performed for Si 3s2 3p2
 
 Converged in 21 iterations to a total energy of -101.9044 eV
 
Calculation parallelised over   36 nodes.
K-points are distributed over    3 groups, each containing   12 nodes.

 ************************************ Title ************************************
 

 ***************************** General Parameters ******************************
  
 output verbosity                               : normal  (1)
 write checkpoint data to                       : jadeite_4_30_GPa_cij__4__3.check
 type of calculation                            : geometry optimization
 stress calculation                             : on
 density difference calculation                 : off
 electron localisation func (ELF) calculation   : off
 Hirshfeld analysis                             : off
 unlimited duration calculation
 timing information                             : on
 memory usage estimate                          : on
 write final potential to formatted file        : off
 write final density to formatted file          : off
  
 output         length unit                     : A
 output           mass unit                     : amu
 output           time unit                     : ps
 output         charge unit                     : e
 output         energy unit                     : eV
 output          force unit                     : eV/A
 output       velocity unit                     : A/ps
 output       pressure unit                     : GPa
 output     inv_length unit                     : 1/A
 output      frequency unit                     : cm-1
 output force constant unit                     : eV/A**2
 output         volume unit                     : A**3
 output   IR intensity unit                     : (D/A)**2/amu
 output         dipole unit                     : D
 output         efield unit                     : eV/A/e
  
 wavefunctions paging                           : none
 data distribution                              : optimal for this architecture
 optimization strategy                          : maximize speed(+++)

 *********************** Exchange-Correlation Parameters ***********************
  
 using functional                               : Perdew Burke Ernzerhof
 Divergence correction                          : off
 DFT+D: Semi-empirical dispersion correction    : off

 ************************* Pseudopotential Parameters **************************
  
 pseudopotential representation                 : reciprocal space
 <beta|phi> representation                      : reciprocal space

 **************************** Basis Set Parameters *****************************
  
 plane wave basis set cut-off                   :   700.0000   eV
 finite basis set correction                    : none

 **************************** Electronic Parameters ****************************
  
 number of  electrons                           :  224.0    
 net charge of system                           :  0.000    
 net spin   of system                           :  0.000    
 number of  up  spins                           :  112.0    
 number of down spins                           :  112.0    
 treating system as non-spin-polarized
 number of bands                                :        112

 ********************* Electronic Minimization Parameters **********************
  
 Method: Treating system as non-metallic,
         and number of  SD  steps               :          1
         and number of  CG  steps               :          4
  
 total energy / atom convergence tol.           : 0.1000E-07   eV
 max force / atom convergence tol.              : ignored
 convergence tolerance window                   :          3   cycles
 max. number of SCF cycles                      :        100

 *********************** Population Analysis Parameters ************************
  
 Population analysis with cutoff                :  3.000       A

 ********************** Geometry Optimization Parameters ***********************
  
 optimization method                            : BFGS
 variable cell method                           : fixed basis quality
 max. number of steps                           :        300
 estimated bulk modulus                         :  500.0       GPa
 estimated <frequency>                          :  1668.       cm-1
 line minimiser tolerance                       :     0.4000
 total energy convergence tolerance             : 0.2000E-06   eV/atom
        max ionic |force| tolerance             : 0.1000E-02   eV/A
 max ionic |displacement| tolerance             : 0.1000E-02   A
   max |stress component| tolerance             : 0.1000E-02   GPa
 convergence tolerance window                   :          2   steps
 backup results every                           :          1   steps

 *******************************************************************************
  
 
                           -------------------------------
                                      Unit Cell
                           -------------------------------
        Real Lattice(A)                      Reciprocal Lattice(1/A)
   8.9813393   0.0000000  -2.7624166        0.6995822   0.0000000   0.0000000
   0.0000000   8.5603493   0.0000000        0.0000000   0.7339870   0.0000000
   0.0000000   0.0000000   5.2199179        0.3702237   0.0000000   1.2036943
 
                       Lattice parameters(A)       Cell Angles
                    a =    9.396563          alpha =   90.000000
                    b =    8.560349          beta  =  107.096479
                    c =    5.219918          gamma =   90.000000
 
                       Current cell volume =  401.325043       A**3
 
                           -------------------------------
                                     Cell Contents
                           -------------------------------
                         Total number of ions in cell =   40
                      Total number of species in cell =    4
                        Max number of any one species =   24
 
            xxxxxxxxxxxxxxxxxxxxxxxxxxxxxxxxxxxxxxxxxxxxxxxxxxxxxxxxxxxx
            x  Element    Atom        Fractional coordinates of atoms  x
            x            Number           u          v          w      x
            x----------------------------------------------------------x
            x  O            1         0.109277   0.076953   0.129205   x
            x  O            2         0.609279   0.576951   0.129208   x
            x  O            3         0.890723   0.076953   0.370795   x
            x  O            4         0.390721   0.576951   0.370792   x
            x  O            5         0.890723   0.923047   0.870795   x
            x  O            6         0.390721   0.423048   0.870792   x
            x  O            7         0.109277   0.923047   0.629205   x
            x  O            8         0.609279   0.423048   0.629208   x
            x  O            9         0.361047   0.263746   0.295383   x
            x  O           10         0.861046   0.763747   0.295382   x
            x  O           11         0.638953   0.263746   0.204617   x
            x  O           12         0.138954   0.763747   0.204618   x
            x  O           13         0.638953   0.736253   0.704617   x
            x  O           14         0.138954   0.236253   0.704618   x
            x  O           15         0.361047   0.736253   0.795383   x
            x  O           16         0.861046   0.236253   0.795382   x
            x  O           17         0.354029   0.008469   1.005059   x
            x  O           18         0.854032   0.508466   1.005069   x
            x  O           19         0.645971   0.008469   0.494941   x
            x  O           20         0.145968   0.508466   0.494931   x
            x  O           21         0.645971   0.991531  -0.005059   x
            x  O           22         0.145968   0.491534  -0.005069   x
            x  O           23         0.354029   0.991531   0.505059   x
            x  O           24         0.854032   0.491534   0.505069   x
            x  Na           1         0.000000   0.301230   0.250000   x
            x  Na           2         0.500000   0.801235   0.250000   x
            x  Na           3         0.000000   0.698770   0.750000   x
            x  Na           4         0.500000   0.198765   0.750000   x
            x  Al           1         0.000000   0.906276   0.250000   x
            x  Al           2         0.500000   0.406276   0.250000   x
            x  Al           3         0.000000   0.093724   0.750000   x
            x  Al           4         0.500000   0.593723   0.750000   x
            x  Si           1         0.290869   0.093825   0.228100   x
            x  Si           2         0.790871   0.593824   0.228106   x
            x  Si           3         0.709131   0.093825   0.271900   x
            x  Si           4         0.209129   0.593824   0.271894   x
            x  Si           5         0.709131   0.906175   0.771900   x
            x  Si           6         0.209129   0.406176   0.771894   x
            x  Si           7         0.290869   0.906175   0.728100   x
            x  Si           8         0.790871   0.406176   0.728106   x
            xxxxxxxxxxxxxxxxxxxxxxxxxxxxxxxxxxxxxxxxxxxxxxxxxxxxxxxxxxxx
 
 
                         No user defined ionic velocities
 
                           -------------------------------
                                   Details of Species
                           -------------------------------
 
                               Mass of species in AMU
                                    O   15.9994000
                                    Na   22.9897700
                                    Al   26.9815400
                                    Si   28.0855000
 
                          Electric Quadrupole Moment (Barn)
                                    O   -0.0255800 Isotope 17
                                    Na    0.1040000 Isotope 23
                                    Al    0.1466000 Isotope 27
                                    Si    1.0000000 No Isotope Defined
 
                          Files used for pseudopotentials:
                                    O O_00PBE.usp
                                    Na Na_00PBE.usp
                                    Al Al_00PBE.usp
                                    Si Si_00PBE.usp
 
                           -------------------------------
                              k-Points For BZ Sampling
                           -------------------------------
                       MP grid size for SCF calculation is  2  2  3
                         Number of kpoints used = 3
 
             +++++++++++++++++++++++++++++++++++++++++++++++++++++++
             +  Number       Fractional coordinates        Weight  +
             +-----------------------------------------------------+
             +     1  -0.250000  -0.250000   0.333333   0.3333333  +
             +     2   0.250000   0.250000   0.000000   0.3333333  +
             +     3   0.250000   0.250000   0.333333   0.3333333  +
             +++++++++++++++++++++++++++++++++++++++++++++++++++++++
 
                           -------------------------------
                               Symmetry and Constraints
                           -------------------------------
 
                      Number of symmetry operations   = 4
                      Number of ionic constraints     = 3
                      Maximum deviation from symmetry = 0.173858E-14     ANG
               Point group of crystal =     5: C2h, 2/m, 2/m
           Set iprint > 1 for details on symmetry rotations/translations
 
                          Centre of mass is constrained
             Set iprint > 1 for details of linear ionic constraints
 
                         Number of cell constraints= 6
                         Cell constraints are:  0 0 0 0 0 0
 
                         External pressure/stress (GPa)
                          4.30000   0.00000   0.00000
                                    4.30000   0.00000
                                              4.30000
  
+---------------- MEMORY AND SCRATCH DISK ESTIMATES PER NODE -----------------+
|                                                     Memory          Disk    |
| Model and support data                               60.0 MB         0.0 MB |
| Electronic energy minimisation requirements          16.7 MB         0.0 MB |
|                                               ----------------------------- |
| Approx. total storage required per node              76.7 MB         0.0 MB |
|                                                                             |
| Requirements will fluctuate during execution and may exceed these estimates |
+-----------------------------------------------------------------------------+
------------------------------------------------------------------------ <-- SCF
SCF loop      Energy                           Energy gain       Timer   <-- SCF
                                               per atom          (sec)   <-- SCF
------------------------------------------------------------------------ <-- SCF
Initial  -1.67913869E+003                                          5.03  <-- SCF
      1  -1.64811611E+004                    3.70050560E+002      17.95  <-- SCF
      2  -1.68161943E+004                    8.37582973E+000      30.19  <-- SCF
      3  -1.68443320E+004                    7.03442534E-001      42.60  <-- SCF
      4  -1.68460933E+004                    4.40344437E-002      54.80  <-- SCF
      5  -1.68461065E+004                    3.27720537E-004      66.93  <-- SCF
      6  -1.68461067E+004                    6.56250782E-006      79.29  <-- SCF
      7  -1.68461067E+004                    1.99203496E-007      91.54  <-- SCF
      8  -1.68461067E+004                    6.22868379E-009     103.96  <-- SCF
      9  -1.68461067E+004                    1.97524845E-010     116.25  <-- SCF
------------------------------------------------------------------------ <-- SCF
 
Final energy =  -16846.10672481     eV
(energy not corrected for finite basis set)
 
 
Writing model to jadeite_4_30_GPa_cij__4__3.check
 
+---------------- MEMORY AND SCRATCH DISK ESTIMATES PER NODE -----------------+
|                                                     Memory          Disk    |
| Model and support data                               53.1 MB         0.0 MB |
| Geometry minimisation requirements                   19.5 MB         0.0 MB |
|                                               ----------------------------- |
| Approx. total storage required per node              72.5 MB         0.0 MB |
|                                                                             |
| Requirements will fluctuate during execution and may exceed these estimates |
+-----------------------------------------------------------------------------+
 
 
 *********************************** Forces ***********************************
 *                                                                            *
 *                        Cartesian components (eV/A)                         *
 * -------------------------------------------------------------------------- *
 *                   x                    y                    z              *
 *                                                                            *
 * O         1     -0.00877             -0.00999              0.01623         *
 * O         2     -0.00892             -0.00993              0.01619         *
 * O         3      0.00877             -0.00999             -0.01623         *
 * O         4      0.00892             -0.00993             -0.01619         *
 * O         5      0.00877              0.00999             -0.01623         *
 * O         6      0.00892              0.00993             -0.01619         *
 * O         7     -0.00877              0.00999              0.01623         *
 * O         8     -0.00892              0.00993              0.01619         *
 * O         9     -0.02833             -0.02497              0.02010         *
 * O        10     -0.02820             -0.02489              0.02011         *
 * O        11      0.02833             -0.02497             -0.02010         *
 * O        12      0.02820             -0.02489             -0.02011         *
 * O        13      0.02833              0.02497             -0.02010         *
 * O        14      0.02820              0.02489             -0.02011         *
 * O        15     -0.02833              0.02497              0.02010         *
 * O        16     -0.02820              0.02489              0.02011         *
 * O        17      0.00528             -0.06695             -0.12871         *
 * O        18      0.00523             -0.06688             -0.12875         *
 * O        19     -0.00528             -0.06695              0.12871         *
 * O        20     -0.00523             -0.06688              0.12875         *
 * O        21     -0.00528              0.06695              0.12871         *
 * O        22     -0.00523              0.06688              0.12875         *
 * O        23      0.00528              0.06695             -0.12871         *
 * O        24      0.00523              0.06688             -0.12875         *
 * Na        1      0.00000              0.01698              0.00000         *
 * Na        2      0.00000              0.01686              0.00000         *
 * Na        3      0.00000             -0.01698              0.00000         *
 * Na        4      0.00000             -0.01686              0.00000         *
 * Al        1      0.00000              0.03189              0.00000         *
 * Al        2      0.00000              0.03200              0.00000         *
 * Al        3      0.00000             -0.03189              0.00000         *
 * Al        4      0.00000             -0.03200              0.00000         *
 * Si        1     -0.01024              0.01235              0.10368         *
 * Si        2     -0.01045              0.01238              0.10366         *
 * Si        3      0.01024              0.01235             -0.10368         *
 * Si        4      0.01045              0.01238             -0.10366         *
 * Si        5      0.01024             -0.01235             -0.10368         *
 * Si        6      0.01045             -0.01238             -0.10366         *
 * Si        7     -0.01024             -0.01235              0.10368         *
 * Si        8     -0.01045             -0.01238              0.10366         *
 *                                                                            *
 ******************************************************************************
 BFGS: finished iteration     0 with enthalpy= -1.68353358E+004 eV
  
 +-----------+-----------------+-----------------+------------+-----+ <-- BFGS
 | Parameter |      value      |    tolerance    |    units   | OK? | <-- BFGS
 +-----------+-----------------+-----------------+------------+-----+ <-- BFGS
 |  dE/ion   |   0.000000E+000 |   2.000000E-007 |         eV | No  | <-- BFGS
 |  |F|max   |   1.451835E-001 |   1.000000E-003 |       eV/A | No  | <-- BFGS
 |  |dR|max  |   0.000000E+000 |   1.000000E-003 |          A | No  | <-- BFGS
 +-----------+-----------------+-----------------+------------+-----+ <-- BFGS
  

================================================================================
 Starting BFGS iteration          1 ...
================================================================================
 
Writing model to jadeite_4_30_GPa_cij__4__3.check
  
 +------------+-------------+-------------+-----------------+ <-- min BFGS
 |    Step    |   lambda    |   F.delta   |    enthalpy     | <-- min BFGS
 +------------+-------------+-------------+-----------------+ <-- min BFGS
 |  previous  |    0.000000 |    0.000050 |   -16835.335766 | <-- min BFGS
 +------------+-------------+-------------+-----------------+ <-- min BFGS
  

--------------------------------------------------------------------------------
 BFGS: starting iteration         1 with trial guess (lambda=  1.000000)
--------------------------------------------------------------------------------
 
                           -------------------------------
                                     Cell Contents
                           -------------------------------
 
            xxxxxxxxxxxxxxxxxxxxxxxxxxxxxxxxxxxxxxxxxxxxxxxxxxxxxxxxxxxx
            x  Element    Atom        Fractional coordinates of atoms  x
            x            Number           u          v          w      x
            x----------------------------------------------------------x
            x  O            1         0.109272   0.076947   0.129218   x
            x  O            2         0.609274   0.576946   0.129220   x
            x  O            3         0.890728   0.076947   0.370782   x
            x  O            4         0.390726   0.576946   0.370780   x
            x  O            5         0.890728   0.923053   0.870782   x
            x  O            6         0.390726   0.423054   0.870780   x
            x  O            7         0.109272   0.923053   0.629218   x
            x  O            8         0.609274   0.423054   0.629220   x
            x  O            9         0.361032   0.263732   0.295394   x
            x  O           10         0.861031   0.763733   0.295393   x
            x  O           11         0.638968   0.263732   0.204606   x
            x  O           12         0.138969   0.763733   0.204607   x
            x  O           13         0.638968   0.736268   0.704606   x
            x  O           14         0.138969   0.236267   0.704607   x
            x  O           15         0.361032   0.736268   0.795394   x
            x  O           16         0.861031   0.236267   0.795393   x
            x  O           17         0.354032   0.008432   1.004941   x
            x  O           18         0.854035   0.508428   1.004951   x
            x  O           19         0.645968   0.008432   0.495059   x
            x  O           20         0.145965   0.508428   0.495049   x
            x  O           21         0.645968   0.991568  -0.004941   x
            x  O           22         0.145965   0.491572  -0.004951   x
            x  O           23         0.354032   0.991568   0.504941   x
            x  O           24         0.854035   0.491572   0.504951   x
            x  Na           1         0.000000   0.301240   0.250000   x
            x  Na           2         0.500000   0.801244   0.250000   x
            x  Na           3         0.000000   0.698760   0.750000   x
            x  Na           4         0.500000   0.198756   0.750000   x
            x  Al           1         0.000000   0.906295   0.250000   x
            x  Al           2         0.500000   0.406295   0.250000   x
            x  Al           3         0.000000   0.093705   0.750000   x
            x  Al           4         0.500000   0.593705   0.750000   x
            x  Si           1         0.290863   0.093831   0.228193   x
            x  Si           2         0.790865   0.593830   0.228199   x
            x  Si           3         0.709137   0.093831   0.271807   x
            x  Si           4         0.209135   0.593830   0.271801   x
            x  Si           5         0.709137   0.906169   0.771807   x
            x  Si           6         0.209135   0.406170   0.771801   x
            x  Si           7         0.290863   0.906169   0.728193   x
            x  Si           8         0.790865   0.406170   0.728199   x
            xxxxxxxxxxxxxxxxxxxxxxxxxxxxxxxxxxxxxxxxxxxxxxxxxxxxxxxxxxxx
 
 
------------------------------------------------------------------------ <-- SCF
SCF loop      Energy                           Energy gain       Timer   <-- SCF
                                               per atom          (sec)   <-- SCF
------------------------------------------------------------------------ <-- SCF
Initial  -1.68461018E+004                                        123.10  <-- SCF
      1  -1.68461079E+004                    1.52420574E-004     135.55  <-- SCF
      2  -1.68461079E+004                    4.90522867E-008     148.09  <-- SCF
      3  -1.68461079E+004                    8.14229273E-010     160.52  <-- SCF
      4  -1.68461079E+004                    1.93348517E-011     173.56  <-- SCF
------------------------------------------------------------------------ <-- SCF
 
Final energy =  -16846.10787077     eV
(energy not corrected for finite basis set)
 
 
 *********************************** Forces ***********************************
 *                                                                            *
 *                        Cartesian components (eV/A)                         *
 * -------------------------------------------------------------------------- *
 *                   x                    y                    z              *
 *                                                                            *
 * O         1     -0.00903             -0.00932              0.01436         *
 * O         2     -0.00919             -0.00927              0.01433         *
 * O         3      0.00903             -0.00932             -0.01436         *
 * O         4      0.00919             -0.00927             -0.01433         *
 * O         5      0.00903              0.00932             -0.01436         *
 * O         6      0.00919              0.00927             -0.01433         *
 * O         7     -0.00903              0.00932              0.01436         *
 * O         8     -0.00919              0.00927              0.01433         *
 * O         9     -0.02296             -0.01525              0.01730         *
 * O        10     -0.02286             -0.01521              0.01731         *
 * O        11      0.02296             -0.01525             -0.01730         *
 * O        12      0.02286             -0.01521             -0.01731         *
 * O        13      0.02296              0.01525             -0.01730         *
 * O        14      0.02286              0.01521             -0.01731         *
 * O        15     -0.02296              0.01525              0.01730         *
 * O        16     -0.02286              0.01521              0.01731         *
 * O        17      0.00155             -0.04233             -0.09131         *
 * O        18      0.00147             -0.04227             -0.09136         *
 * O        19     -0.00155             -0.04233              0.09131         *
 * O        20     -0.00147             -0.04227              0.09136         *
 * O        21     -0.00155              0.04233              0.09131         *
 * O        22     -0.00147              0.04227              0.09136         *
 * O        23      0.00155              0.04233             -0.09131         *
 * O        24      0.00147              0.04227             -0.09136         *
 * Na        1      0.00000              0.01738              0.00000         *
 * Na        2      0.00000              0.01727              0.00000         *
 * Na        3      0.00000             -0.01738              0.00000         *
 * Na        4      0.00000             -0.01727              0.00000         *
 * Al        1      0.00000              0.02782              0.00000         *
 * Al        2      0.00000              0.02791              0.00000         *
 * Al        3      0.00000             -0.02782              0.00000         *
 * Al        4      0.00000             -0.02791              0.00000         *
 * Si        1     -0.00919              0.00380              0.06873         *
 * Si        2     -0.00936              0.00385              0.06872         *
 * Si        3      0.00919              0.00380             -0.06873         *
 * Si        4      0.00936              0.00385             -0.06872         *
 * Si        5      0.00919             -0.00380             -0.06873         *
 * Si        6      0.00936             -0.00385             -0.06872         *
 * Si        7     -0.00919             -0.00380              0.06873         *
 * Si        8     -0.00936             -0.00385              0.06872         *
 *                                                                            *
 ******************************************************************************
  
 +------------+-------------+-------------+-----------------+ <-- min BFGS
 |    Step    |   lambda    |   F.delta   |    enthalpy     | <-- min BFGS
 +------------+-------------+-------------+-----------------+ <-- min BFGS
 |  previous  |    0.000000 |    0.000050 |   -16835.335766 | <-- min BFGS
 | trial step |    1.000000 |    0.000034 |   -16835.336912 | <-- min BFGS
 +------------+-------------+-------------+-----------------+ <-- min BFGS
  

--------------------------------------------------------------------------------
 BFGS: improving iteration         1 with line minimization (lambda=  3.251209)
--------------------------------------------------------------------------------
 
                           -------------------------------
                                     Cell Contents
                           -------------------------------
 
            xxxxxxxxxxxxxxxxxxxxxxxxxxxxxxxxxxxxxxxxxxxxxxxxxxxxxxxxxxxx
            x  Element    Atom        Fractional coordinates of atoms  x
            x            Number           u          v          w      x
            x----------------------------------------------------------x
            x  O            1         0.109262   0.076935   0.129246   x
            x  O            2         0.609263   0.576933   0.129249   x
            x  O            3         0.890738   0.076935   0.370754   x
            x  O            4         0.390737   0.576933   0.370751   x
            x  O            5         0.890738   0.923065   0.870754   x
            x  O            6         0.390737   0.423067   0.870751   x
            x  O            7         0.109262   0.923065   0.629246   x
            x  O            8         0.609263   0.423067   0.629249   x
            x  O            9         0.360997   0.263701   0.295417   x
            x  O           10         0.860997   0.763701   0.295416   x
            x  O           11         0.639003   0.263701   0.204583   x
            x  O           12         0.139003   0.763701   0.204584   x
            x  O           13         0.639003   0.736299   0.704583   x
            x  O           14         0.139003   0.236299   0.704584   x
            x  O           15         0.360997   0.736299   0.795417   x
            x  O           16         0.860997   0.236299   0.795416   x
            x  O           17         0.354038   0.008347   1.004676   x
            x  O           18         0.854041   0.508343   1.004686   x
            x  O           19         0.645962   0.008347   0.495324   x
            x  O           20         0.145959   0.508343   0.495314   x
            x  O           21         0.645962   0.991653  -0.004676   x
            x  O           22         0.145959   0.491657  -0.004686   x
            x  O           23         0.354038   0.991653   0.504676   x
            x  O           24         0.854041   0.491657   0.504686   x
            x  Na           1         0.000000   0.301261   0.250000   x
            x  Na           2         0.500000   0.801265   0.250000   x
            x  Na           3         0.000000   0.698739   0.750000   x
            x  Na           4         0.500000   0.198735   0.750000   x
            x  Al           1         0.000000   0.906335   0.250000   x
            x  Al           2         0.500000   0.406335   0.250000   x
            x  Al           3         0.000000   0.093665   0.750000   x
            x  Al           4         0.500000   0.593665   0.750000   x
            x  Si           1         0.290851   0.093847   0.228403   x
            x  Si           2         0.790853   0.593846   0.228409   x
            x  Si           3         0.709149   0.093847   0.271597   x
            x  Si           4         0.209147   0.593846   0.271591   x
            x  Si           5         0.709149   0.906153   0.771597   x
            x  Si           6         0.209147   0.406154   0.771591   x
            x  Si           7         0.290851   0.906153   0.728403   x
            x  Si           8         0.790853   0.406154   0.728409   x
            xxxxxxxxxxxxxxxxxxxxxxxxxxxxxxxxxxxxxxxxxxxxxxxxxxxxxxxxxxxx
 
 
------------------------------------------------------------------------ <-- SCF
SCF loop      Energy                           Energy gain       Timer   <-- SCF
                                               per atom          (sec)   <-- SCF
------------------------------------------------------------------------ <-- SCF
Initial  -1.68460892E+004                                        178.97  <-- SCF
      1  -1.68461089E+004                    4.92791445E-004     191.53  <-- SCF
      2  -1.68461089E+004                    1.80494707E-007     203.88  <-- SCF
      3  -1.68461089E+004                    3.25088462E-009     216.35  <-- SCF
      4  -1.68461089E+004                    7.43231698E-011     229.07  <-- SCF
------------------------------------------------------------------------ <-- SCF
 
Final energy =  -16846.10892884     eV
(energy not corrected for finite basis set)
 
 
 *********************************** Forces ***********************************
 *                                                                            *
 *                        Cartesian components (eV/A)                         *
 * -------------------------------------------------------------------------- *
 *                   x                    y                    z              *
 *                                                                            *
 * O         1     -0.00961             -0.00782              0.01017         *
 * O         2     -0.00976             -0.00777              0.01014         *
 * O         3      0.00961             -0.00782             -0.01017         *
 * O         4      0.00976             -0.00777             -0.01014         *
 * O         5      0.00961              0.00782             -0.01017         *
 * O         6      0.00976              0.00777             -0.01014         *
 * O         7     -0.00961              0.00782              0.01017         *
 * O         8     -0.00976              0.00777              0.01014         *
 * O         9     -0.01089              0.00668              0.01099         *
 * O        10     -0.01085              0.00663              0.01100         *
 * O        11      0.01089              0.00668             -0.01099         *
 * O        12      0.01085              0.00663             -0.01100         *
 * O        13      0.01089             -0.00668             -0.01099         *
 * O        14      0.01085             -0.00663             -0.01100         *
 * O        15     -0.01089             -0.00668              0.01099         *
 * O        16     -0.01085             -0.00663              0.01100         *
 * O        17     -0.00642              0.01302             -0.00735         *
 * O        18     -0.00652              0.01308             -0.00740         *
 * O        19      0.00642              0.01302              0.00735         *
 * O        20      0.00652              0.01308              0.00740         *
 * O        21      0.00642             -0.01302              0.00735         *
 * O        22      0.00652             -0.01308              0.00740         *
 * O        23     -0.00642             -0.01302             -0.00735         *
 * O        24     -0.00652             -0.01308             -0.00740         *
 * Na        1      0.00000              0.01828              0.00000         *
 * Na        2      0.00000              0.01818              0.00000         *
 * Na        3      0.00000             -0.01828              0.00000         *
 * Na        4      0.00000             -0.01818              0.00000         *
 * Al        1      0.00000              0.01868              0.00000         *
 * Al        2      0.00000              0.01872              0.00000         *
 * Al        3      0.00000             -0.01868              0.00000         *
 * Al        4      0.00000             -0.01872              0.00000         *
 * Si        1     -0.00732             -0.01486             -0.00972         *
 * Si        2     -0.00738             -0.01477             -0.00973         *
 * Si        3      0.00732             -0.01486              0.00972         *
 * Si        4      0.00738             -0.01477              0.00973         *
 * Si        5      0.00732              0.01486              0.00972         *
 * Si        6      0.00738              0.01477              0.00973         *
 * Si        7     -0.00732              0.01486             -0.00972         *
 * Si        8     -0.00738              0.01477             -0.00973         *
 *                                                                            *
 ******************************************************************************
  
 +------------+-------------+-------------+-----------------+ <-- min BFGS
 |    Step    |   lambda    |   F.delta   |    enthalpy     | <-- min BFGS
 +------------+-------------+-------------+-----------------+ <-- min BFGS
 |  previous  |    0.000000 |    0.000050 |   -16835.335766 | <-- min BFGS
 | trial step |    1.000000 |    0.000034 |   -16835.336912 | <-- min BFGS
 |  line step |    3.251209 |    0.000000 |   -16835.337970 | <-- min BFGS
 +------------+-------------+-------------+-----------------+ <-- min BFGS
  
 BFGS: finished iteration     1 with enthalpy= -1.68353380E+004 eV
  
 +-----------+-----------------+-----------------+------------+-----+ <-- BFGS
 | Parameter |      value      |    tolerance    |    units   | OK? | <-- BFGS
 +-----------+-----------------+-----------------+------------+-----+ <-- BFGS
 |  dE/ion   |   5.510079E-005 |   2.000000E-007 |         eV | No  | <-- BFGS
 |  |F|max   |   1.920641E-002 |   1.000000E-003 |       eV/A | No  | <-- BFGS
 |  |dR|max  |   2.282833E-003 |   1.000000E-003 |          A | No  | <-- BFGS
 +-----------+-----------------+-----------------+------------+-----+ <-- BFGS
  

================================================================================
 Starting BFGS iteration          2 ...
================================================================================
 
Writing model to jadeite_4_30_GPa_cij__4__3.check
  
 +------------+-------------+-------------+-----------------+ <-- min BFGS
 |    Step    |   lambda    |   F.delta   |    enthalpy     | <-- min BFGS
 +------------+-------------+-------------+-----------------+ <-- min BFGS
 |  previous  |    0.000000 |    0.000002 |   -16835.337970 | <-- min BFGS
 +------------+-------------+-------------+-----------------+ <-- min BFGS
  

--------------------------------------------------------------------------------
 BFGS: starting iteration         2 with trial guess (lambda=  1.000000)
--------------------------------------------------------------------------------
 
                           -------------------------------
                                     Cell Contents
                           -------------------------------
 
            xxxxxxxxxxxxxxxxxxxxxxxxxxxxxxxxxxxxxxxxxxxxxxxxxxxxxxxxxxxx
            x  Element    Atom        Fractional coordinates of atoms  x
            x            Number           u          v          w      x
            x----------------------------------------------------------x
            x  O            1         0.109256   0.076930   0.129253   x
            x  O            2         0.609258   0.576929   0.129256   x
            x  O            3         0.890744   0.076930   0.370747   x
            x  O            4         0.390742   0.576929   0.370744   x
            x  O            5         0.890744   0.923070   0.870747   x
            x  O            6         0.390742   0.423071   0.870744   x
            x  O            7         0.109256   0.923070   0.629253   x
            x  O            8         0.609258   0.423071   0.629256   x
            x  O            9         0.360991   0.263704   0.295425   x
            x  O           10         0.860990   0.763704   0.295424   x
            x  O           11         0.639009   0.263704   0.204575   x
            x  O           12         0.139010   0.763704   0.204576   x
            x  O           13         0.639009   0.736296   0.704575   x
            x  O           14         0.139010   0.236296   0.704576   x
            x  O           15         0.360991   0.736296   0.795425   x
            x  O           16         0.860990   0.236296   0.795424   x
            x  O           17         0.354035   0.008352   1.004662   x
            x  O           18         0.854038   0.508349   1.004672   x
            x  O           19         0.645965   0.008352   0.495338   x
            x  O           20         0.145962   0.508349   0.495328   x
            x  O           21         0.645965   0.991648  -0.004662   x
            x  O           22         0.145962   0.491651  -0.004672   x
            x  O           23         0.354035   0.991648   0.504662   x
            x  O           24         0.854038   0.491651   0.504672   x
            x  Na           1         0.000000   0.301272   0.250000   x
            x  Na           2         0.500000   0.801276   0.250000   x
            x  Na           3         0.000000   0.698728   0.750000   x
            x  Na           4         0.500000   0.198724   0.750000   x
            x  Al           1         0.000000   0.906347   0.250000   x
            x  Al           2         0.500000   0.406347   0.250000   x
            x  Al           3         0.000000   0.093653   0.750000   x
            x  Al           4         0.500000   0.593653   0.750000   x
            x  Si           1         0.290847   0.093839   0.228396   x
            x  Si           2         0.790848   0.593838   0.228402   x
            x  Si           3         0.709153   0.093839   0.271604   x
            x  Si           4         0.209152   0.593838   0.271598   x
            x  Si           5         0.709153   0.906161   0.771604   x
            x  Si           6         0.209152   0.406162   0.771598   x
            x  Si           7         0.290847   0.906161   0.728396   x
            x  Si           8         0.790848   0.406162   0.728402   x
            xxxxxxxxxxxxxxxxxxxxxxxxxxxxxxxxxxxxxxxxxxxxxxxxxxxxxxxxxxxx
 
 
------------------------------------------------------------------------ <-- SCF
SCF loop      Energy                           Energy gain       Timer   <-- SCF
                                               per atom          (sec)   <-- SCF
------------------------------------------------------------------------ <-- SCF
Initial  -1.68461087E+004                                        235.14  <-- SCF
      1  -1.68461090E+004                    8.09534779E-006     247.31  <-- SCF
      2  -1.68461090E+004                    3.59071397E-009     259.79  <-- SCF
      3  -1.68461090E+004                    3.36426419E-011     273.32  <-- SCF
------------------------------------------------------------------------ <-- SCF
 
Final energy =  -16846.10898509     eV
(energy not corrected for finite basis set)
 
 
 *********************************** Forces ***********************************
 *                                                                            *
 *                        Cartesian components (eV/A)                         *
 * -------------------------------------------------------------------------- *
 *                   x                    y                    z              *
 *                                                                            *
 * O         1     -0.00861             -0.00736              0.00952         *
 * O         2     -0.00874             -0.00731              0.00949         *
 * O         3      0.00861             -0.00736             -0.00952         *
 * O         4      0.00874             -0.00731             -0.00949         *
 * O         5      0.00861              0.00736             -0.00952         *
 * O         6      0.00874              0.00731             -0.00949         *
 * O         7     -0.00861              0.00736              0.00952         *
 * O         8     -0.00874              0.00731              0.00949         *
 * O         9     -0.01113              0.00465              0.01004         *
 * O        10     -0.01109              0.00462              0.01005         *
 * O        11      0.01113              0.00465             -0.01004         *
 * O        12      0.01109              0.00462             -0.01005         *
 * O        13      0.01113             -0.00465             -0.01004         *
 * O        14      0.01109             -0.00462             -0.01005         *
 * O        15     -0.01113             -0.00465              0.01004         *
 * O        16     -0.01109             -0.00462              0.01005         *
 * O        17     -0.00585              0.01347             -0.00674         *
 * O        18     -0.00595              0.01352             -0.00679         *
 * O        19      0.00585              0.01347              0.00674         *
 * O        20      0.00595              0.01352              0.00679         *
 * O        21      0.00585             -0.01347              0.00674         *
 * O        22      0.00595             -0.01352              0.00679         *
 * O        23     -0.00585             -0.01347             -0.00674         *
 * O        24     -0.00595             -0.01352             -0.00679         *
 * Na        1      0.00000              0.01777              0.00000         *
 * Na        2      0.00000              0.01767              0.00000         *
 * Na        3      0.00000             -0.01777              0.00000         *
 * Na        4      0.00000             -0.01767              0.00000         *
 * Al        1      0.00000              0.01657              0.00000         *
 * Al        2      0.00000              0.01661              0.00000         *
 * Al        3      0.00000             -0.01657              0.00000         *
 * Al        4      0.00000             -0.01661              0.00000         *
 * Si        1     -0.00697             -0.01055             -0.00963         *
 * Si        2     -0.00705             -0.01048             -0.00965         *
 * Si        3      0.00697             -0.01055              0.00963         *
 * Si        4      0.00705             -0.01048              0.00965         *
 * Si        5      0.00697              0.01055              0.00963         *
 * Si        6      0.00705              0.01048              0.00965         *
 * Si        7     -0.00697              0.01055             -0.00963         *
 * Si        8     -0.00705              0.01048             -0.00965         *
 *                                                                            *
 ******************************************************************************
  
 +------------+-------------+-------------+-----------------+ <-- min BFGS
 |    Step    |   lambda    |   F.delta   |    enthalpy     | <-- min BFGS
 +------------+-------------+-------------+-----------------+ <-- min BFGS
 |  previous  |    0.000000 |    0.000002 |   -16835.337970 | <-- min BFGS
 | trial step |    1.000000 |    0.000002 |   -16835.338027 | <-- min BFGS
 +------------+-------------+-------------+-----------------+ <-- min BFGS
  

--------------------------------------------------------------------------------
 BFGS: improving iteration         2 with line minimization (lambda= 10.986424)
--------------------------------------------------------------------------------
 
                           -------------------------------
                                     Cell Contents
                           -------------------------------
 
            xxxxxxxxxxxxxxxxxxxxxxxxxxxxxxxxxxxxxxxxxxxxxxxxxxxxxxxxxxxx
            x  Element    Atom        Fractional coordinates of atoms  x
            x            Number           u          v          w      x
            x----------------------------------------------------------x
            x  O            1         0.109202   0.076883   0.129326   x
            x  O            2         0.609203   0.576882   0.129328   x
            x  O            3         0.890798   0.076883   0.370674   x
            x  O            4         0.390797   0.576882   0.370672   x
            x  O            5         0.890798   0.923117   0.870674   x
            x  O            6         0.390797   0.423118   0.870672   x
            x  O            7         0.109202   0.923117   0.629326   x
            x  O            8         0.609203   0.423118   0.629328   x
            x  O            9         0.360925   0.263735   0.295501   x
            x  O           10         0.860924   0.763735   0.295500   x
            x  O           11         0.639075   0.263735   0.204499   x
            x  O           12         0.139076   0.763735   0.204500   x
            x  O           13         0.639075   0.736265   0.704499   x
            x  O           14         0.139076   0.236265   0.704500   x
            x  O           15         0.360925   0.736265   0.795501   x
            x  O           16         0.860924   0.236265   0.795500   x
            x  O           17         0.354002   0.008408   1.004519   x
            x  O           18         0.854004   0.508405   1.004528   x
            x  O           19         0.645998   0.008408   0.495481   x
            x  O           20         0.145996   0.508405   0.495472   x
            x  O           21         0.645998   0.991592  -0.004519   x
            x  O           22         0.145996   0.491595  -0.004528   x
            x  O           23         0.354002   0.991592   0.504519   x
            x  O           24         0.854004   0.491595   0.504528   x
            x  Na           1         0.000000   0.301380   0.250000   x
            x  Na           2         0.500000   0.801384   0.250000   x
            x  Na           3         0.000000   0.698620   0.750000   x
            x  Na           4         0.500000   0.198616   0.750000   x
            x  Al           1         0.000000   0.906461   0.250000   x
            x  Al           2         0.500000   0.406461   0.250000   x
            x  Al           3         0.000000   0.093539   0.750000   x
            x  Al           4         0.500000   0.593539   0.750000   x
            x  Si           1         0.290805   0.093758   0.228330   x
            x  Si           2         0.790806   0.593758   0.228335   x
            x  Si           3         0.709195   0.093758   0.271670   x
            x  Si           4         0.209194   0.593758   0.271665   x
            x  Si           5         0.709195   0.906242   0.771670   x
            x  Si           6         0.209194   0.406242   0.771665   x
            x  Si           7         0.290805   0.906242   0.728330   x
            x  Si           8         0.790806   0.406242   0.728335   x
            xxxxxxxxxxxxxxxxxxxxxxxxxxxxxxxxxxxxxxxxxxxxxxxxxxxxxxxxxxxx
 
 
------------------------------------------------------------------------ <-- SCF
SCF loop      Energy                           Energy gain       Timer   <-- SCF
                                               per atom          (sec)   <-- SCF
------------------------------------------------------------------------ <-- SCF
Initial  -1.68460964E+004                                        278.39  <-- SCF
      1  -1.68461092E+004                    3.21278191E-004     290.70  <-- SCF
      2  -1.68461093E+004                    1.40699097E-007     302.91  <-- SCF
      3  -1.68461093E+004                    9.01081427E-010     315.72  <-- SCF
      4  -1.68461093E+004                    1.78654029E-011     329.03  <-- SCF
------------------------------------------------------------------------ <-- SCF
 
Final energy =  -16846.10925208     eV
(energy not corrected for finite basis set)
 
 
 *********************************** Forces ***********************************
 *                                                                            *
 *                        Cartesian components (eV/A)                         *
 * -------------------------------------------------------------------------- *
 *                   x                    y                    z              *
 *                                                                            *
 * O         1      0.00148             -0.00271              0.00304         *
 * O         2      0.00156             -0.00263              0.00303         *
 * O         3     -0.00148             -0.00271             -0.00304         *
 * O         4     -0.00156             -0.00263             -0.00303         *
 * O         5     -0.00148              0.00271             -0.00304         *
 * O         6     -0.00156              0.00263             -0.00303         *
 * O         7      0.00148              0.00271              0.00304         *
 * O         8      0.00156              0.00263              0.00303         *
 * O         9     -0.01347             -0.01563              0.00054         *
 * O        10     -0.01339             -0.01553              0.00057         *
 * O        11      0.01347             -0.01563             -0.00054         *
 * O        12      0.01339             -0.01553             -0.00057         *
 * O        13      0.01347              0.01563             -0.00054         *
 * O        14      0.01339              0.01553             -0.00057         *
 * O        15     -0.01347              0.01563              0.00054         *
 * O        16     -0.01339              0.01553              0.00057         *
 * O        17     -0.00008              0.01803             -0.00051         *
 * O        18     -0.00020              0.01806             -0.00056         *
 * O        19      0.00008              0.01803              0.00051         *
 * O        20      0.00020              0.01806              0.00056         *
 * O        21      0.00008             -0.01803              0.00051         *
 * O        22      0.00020             -0.01806              0.00056         *
 * O        23     -0.00008             -0.01803             -0.00051         *
 * O        24     -0.00020             -0.01806             -0.00056         *
 * Na        1      0.00000              0.01261              0.00000         *
 * Na        2      0.00000              0.01252              0.00000         *
 * Na        3      0.00000             -0.01261              0.00000         *
 * Na        4      0.00000             -0.01252              0.00000         *
 * Al        1      0.00000             -0.00440              0.00000         *
 * Al        2      0.00000             -0.00440              0.00000         *
 * Al        3      0.00000              0.00440              0.00000         *
 * Al        4      0.00000              0.00440              0.00000         *
 * Si        1     -0.00360              0.03241             -0.00882         *
 * Si        2     -0.00379              0.03225             -0.00887         *
 * Si        3      0.00360              0.03241              0.00882         *
 * Si        4      0.00379              0.03225              0.00887         *
 * Si        5      0.00360             -0.03241              0.00882         *
 * Si        6      0.00379             -0.03225              0.00887         *
 * Si        7     -0.00360             -0.03241             -0.00882         *
 * Si        8     -0.00379             -0.03225             -0.00887         *
 *                                                                            *
 ******************************************************************************
  
 +------------+-------------+-------------+-----------------+ <-- min BFGS
 |    Step    |   lambda    |   F.delta   |    enthalpy     | <-- min BFGS
 +------------+-------------+-------------+-----------------+ <-- min BFGS
 |  previous  |    0.000000 |    0.000002 |   -16835.337970 | <-- min BFGS
 | trial step |    1.000000 |    0.000002 |   -16835.338027 | <-- min BFGS
 |  line step |   10.986424 |    0.000000 |   -16835.338294 | <-- min BFGS
 +------------+-------------+-------------+-----------------+ <-- min BFGS
  
 BFGS: finished iteration     2 with enthalpy= -1.68353383E+004 eV
  
 +-----------+-----------------+-----------------+------------+-----+ <-- BFGS
 | Parameter |      value      |    tolerance    |    units   | OK? | <-- BFGS
 +-----------+-----------------+-----------------+------------+-----+ <-- BFGS
 |  dE/ion   |   8.081019E-006 |   2.000000E-007 |         eV | No  | <-- BFGS
 |  |F|max   |   3.378413E-002 |   1.000000E-003 |       eV/A | No  | <-- BFGS
 |  |dR|max  |   1.078136E-003 |   1.000000E-003 |          A | No  | <-- BFGS
 +-----------+-----------------+-----------------+------------+-----+ <-- BFGS
  

================================================================================
 Starting BFGS iteration          3 ...
================================================================================
 
Writing model to jadeite_4_30_GPa_cij__4__3.check
  
 +------------+-------------+-------------+-----------------+ <-- min BFGS
 |    Step    |   lambda    |   F.delta   |    enthalpy     | <-- min BFGS
 +------------+-------------+-------------+-----------------+ <-- min BFGS
 |  previous  |    0.000000 |    0.000003 |   -16835.338294 | <-- min BFGS
 +------------+-------------+-------------+-----------------+ <-- min BFGS
  

--------------------------------------------------------------------------------
 BFGS: starting iteration         3 with trial guess (lambda=  1.000000)
--------------------------------------------------------------------------------
 
                           -------------------------------
                                     Cell Contents
                           -------------------------------
 
            xxxxxxxxxxxxxxxxxxxxxxxxxxxxxxxxxxxxxxxxxxxxxxxxxxxxxxxxxxxx
            x  Element    Atom        Fractional coordinates of atoms  x
            x            Number           u          v          w      x
            x----------------------------------------------------------x
            x  O            1         0.109196   0.076876   0.129338   x
            x  O            2         0.609197   0.576875   0.129340   x
            x  O            3         0.890804   0.076876   0.370662   x
            x  O            4         0.390803   0.576875   0.370660   x
            x  O            5         0.890804   0.923124   0.870662   x
            x  O            6         0.390803   0.423125   0.870660   x
            x  O            7         0.109196   0.923124   0.629338   x
            x  O            8         0.609197   0.423125   0.629340   x
            x  O            9         0.360910   0.263731   0.295507   x
            x  O           10         0.860909   0.763731   0.295506   x
            x  O           11         0.639090   0.263731   0.204493   x
            x  O           12         0.139091   0.763731   0.204494   x
            x  O           13         0.639090   0.736269   0.704493   x
            x  O           14         0.139091   0.236269   0.704494   x
            x  O           15         0.360910   0.736269   0.795507   x
            x  O           16         0.860909   0.236269   0.795506   x
            x  O           17         0.353997   0.008427   1.004505   x
            x  O           18         0.853999   0.508424   1.004514   x
            x  O           19         0.646003   0.008427   0.495495   x
            x  O           20         0.146001   0.508424   0.495486   x
            x  O           21         0.646003   0.991573  -0.004505   x
            x  O           22         0.146001   0.491576  -0.004514   x
            x  O           23         0.353997   0.991573   0.504505   x
            x  O           24         0.853999   0.491576   0.504514   x
            x  Na           1         0.000000   0.301401   0.250000   x
            x  Na           2         0.500000   0.801404   0.250000   x
            x  Na           3         0.000000   0.698599   0.750000   x
            x  Na           4         0.500000   0.198596   0.750000   x
            x  Al           1         0.000000   0.906472   0.250000   x
            x  Al           2         0.500000   0.406473   0.250000   x
            x  Al           3         0.000000   0.093528   0.750000   x
            x  Al           4         0.500000   0.593527   0.750000   x
            x  Si           1         0.290798   0.093766   0.228308   x
            x  Si           2         0.790799   0.593766   0.228313   x
            x  Si           3         0.709202   0.093766   0.271692   x
            x  Si           4         0.209201   0.593766   0.271687   x
            x  Si           5         0.709202   0.906234   0.771692   x
            x  Si           6         0.209201   0.406234   0.771687   x
            x  Si           7         0.290798   0.906234   0.728308   x
            x  Si           8         0.790799   0.406234   0.728313   x
            xxxxxxxxxxxxxxxxxxxxxxxxxxxxxxxxxxxxxxxxxxxxxxxxxxxxxxxxxxxx
 
 
------------------------------------------------------------------------ <-- SCF
SCF loop      Energy                           Energy gain       Timer   <-- SCF
                                               per atom          (sec)   <-- SCF
------------------------------------------------------------------------ <-- SCF
Initial  -1.68461088E+004                                        335.14  <-- SCF
      1  -1.68461093E+004                    1.24779573E-005     347.42  <-- SCF
      2  -1.68461093E+004                    5.95861459E-009     359.73  <-- SCF
      3  -1.68461093E+004                    4.05258491E-011     372.92  <-- SCF
------------------------------------------------------------------------ <-- SCF
 
Final energy =  -16846.10932331     eV
(energy not corrected for finite basis set)
 
 
 *********************************** Forces ***********************************
 *                                                                            *
 *                        Cartesian components (eV/A)                         *
 * -------------------------------------------------------------------------- *
 *                   x                    y                    z              *
 *                                                                            *
 * O         1      0.00159             -0.00155              0.00178         *
 * O         2      0.00165             -0.00147              0.00178         *
 * O         3     -0.00159             -0.00155             -0.00178         *
 * O         4     -0.00165             -0.00147             -0.00178         *
 * O         5     -0.00159              0.00155             -0.00178         *
 * O         6     -0.00165              0.00147             -0.00178         *
 * O         7      0.00159              0.00155              0.00178         *
 * O         8      0.00165              0.00147              0.00178         *
 * O         9     -0.01041             -0.01146             -0.00026         *
 * O        10     -0.01036             -0.01140             -0.00023         *
 * O        11      0.01041             -0.01146              0.00026         *
 * O        12      0.01036             -0.01140              0.00023         *
 * O        13      0.01041              0.01146              0.00026         *
 * O        14      0.01036              0.01140              0.00023         *
 * O        15     -0.01041              0.01146             -0.00026         *
 * O        16     -0.01036              0.01140             -0.00023         *
 * O        17     -0.00054              0.01552             -0.00401         *
 * O        18     -0.00066              0.01555             -0.00406         *
 * O        19      0.00054              0.01552              0.00401         *
 * O        20      0.00066              0.01555              0.00406         *
 * O        21      0.00054             -0.01552              0.00401         *
 * O        22      0.00066             -0.01555              0.00406         *
 * O        23     -0.00054             -0.01552             -0.00401         *
 * O        24     -0.00066             -0.01555             -0.00406         *
 * Na        1      0.00000              0.01244              0.00000         *
 * Na        2      0.00000              0.01236              0.00000         *
 * Na        3      0.00000             -0.01244              0.00000         *
 * Na        4      0.00000             -0.01236              0.00000         *
 * Al        1      0.00000             -0.00648              0.00000         *
 * Al        2      0.00000             -0.00650              0.00000         *
 * Al        3      0.00000              0.00648              0.00000         *
 * Al        4      0.00000              0.00650              0.00000         *
 * Si        1     -0.00343              0.02771             -0.00524         *
 * Si        2     -0.00356              0.02759             -0.00528         *
 * Si        3      0.00343              0.02771              0.00524         *
 * Si        4      0.00356              0.02759              0.00528         *
 * Si        5      0.00343             -0.02771              0.00524         *
 * Si        6      0.00356             -0.02759              0.00528         *
 * Si        7     -0.00343             -0.02771             -0.00524         *
 * Si        8     -0.00356             -0.02759             -0.00528         *
 *                                                                            *
 ******************************************************************************
  
 +------------+-------------+-------------+-----------------+ <-- min BFGS
 |    Step    |   lambda    |   F.delta   |    enthalpy     | <-- min BFGS
 +------------+-------------+-------------+-----------------+ <-- min BFGS
 |  previous  |    0.000000 |    0.000003 |   -16835.338294 | <-- min BFGS
 | trial step |    1.000000 |    0.000002 |   -16835.338365 | <-- min BFGS
 +------------+-------------+-------------+-----------------+ <-- min BFGS
  

--------------------------------------------------------------------------------
 BFGS: improving iteration         3 with line minimization (lambda=  5.567911)
--------------------------------------------------------------------------------
 
                           -------------------------------
                                     Cell Contents
                           -------------------------------
 
            xxxxxxxxxxxxxxxxxxxxxxxxxxxxxxxxxxxxxxxxxxxxxxxxxxxxxxxxxxxx
            x  Element    Atom        Fractional coordinates of atoms  x
            x            Number           u          v          w      x
            x----------------------------------------------------------x
            x  O            1         0.109169   0.076842   0.129393   x
            x  O            2         0.609169   0.576842   0.129395   x
            x  O            3         0.890831   0.076842   0.370607   x
            x  O            4         0.390831   0.576842   0.370605   x
            x  O            5         0.890831   0.923158   0.870607   x
            x  O            6         0.390831   0.423158   0.870605   x
            x  O            7         0.109169   0.923158   0.629393   x
            x  O            8         0.609169   0.423158   0.629395   x
            x  O            9         0.360841   0.263712   0.295534   x
            x  O           10         0.860841   0.763712   0.295534   x
            x  O           11         0.639159   0.263712   0.204466   x
            x  O           12         0.139159   0.763712   0.204466   x
            x  O           13         0.639159   0.736288   0.704466   x
            x  O           14         0.139159   0.236288   0.704466   x
            x  O           15         0.360841   0.736288   0.795534   x
            x  O           16         0.860841   0.236288   0.795534   x
            x  O           17         0.353977   0.008514   1.004444   x
            x  O           18         0.853978   0.508511   1.004452   x
            x  O           19         0.646023   0.008514   0.495556   x
            x  O           20         0.146022   0.508511   0.495548   x
            x  O           21         0.646023   0.991486  -0.004444   x
            x  O           22         0.146022   0.491489  -0.004452   x
            x  O           23         0.353977   0.991486   0.504444   x
            x  O           24         0.853978   0.491489   0.504452   x
            x  Na           1         0.000000   0.301495   0.250000   x
            x  Na           2         0.500000   0.801498   0.250000   x
            x  Na           3         0.000000   0.698505   0.750000   x
            x  Na           4         0.500000   0.198502   0.750000   x
            x  Al           1         0.000000   0.906524   0.250000   x
            x  Al           2         0.500000   0.406525   0.250000   x
            x  Al           3         0.000000   0.093476   0.750000   x
            x  Al           4         0.500000   0.593475   0.750000   x
            x  Si           1         0.290765   0.093800   0.228207   x
            x  Si           2         0.790766   0.593800   0.228212   x
            x  Si           3         0.709235   0.093800   0.271793   x
            x  Si           4         0.209234   0.593800   0.271788   x
            x  Si           5         0.709235   0.906200   0.771793   x
            x  Si           6         0.209234   0.406200   0.771788   x
            x  Si           7         0.290765   0.906200   0.728207   x
            x  Si           8         0.790766   0.406200   0.728212   x
            xxxxxxxxxxxxxxxxxxxxxxxxxxxxxxxxxxxxxxxxxxxxxxxxxxxxxxxxxxxx
 
 
------------------------------------------------------------------------ <-- SCF
SCF loop      Energy                           Energy gain       Timer   <-- SCF
                                               per atom          (sec)   <-- SCF
------------------------------------------------------------------------ <-- SCF
Initial  -1.68461008E+004                                        378.24  <-- SCF
      1  -1.68461095E+004                    2.17535031E-004     390.66  <-- SCF
      2  -1.68461095E+004                    1.03359322E-007     402.86  <-- SCF
      3  -1.68461095E+004                    6.97060072E-010     415.03  <-- SCF
      4  -1.68461095E+004                    1.49265055E-011     427.97  <-- SCF
------------------------------------------------------------------------ <-- SCF
 
Final energy =  -16846.10947030     eV
(energy not corrected for finite basis set)
 
 
 *********************************** Forces ***********************************
 *                                                                            *
 *                        Cartesian components (eV/A)                         *
 * -------------------------------------------------------------------------- *
 *                   x                    y                    z              *
 *                                                                            *
 * O         1      0.00209              0.00378             -0.00393         *
 * O         2      0.00207              0.00381             -0.00393         *
 * O         3     -0.00209              0.00378              0.00393         *
 * O         4     -0.00207              0.00381              0.00393         *
 * O         5     -0.00209             -0.00378              0.00393         *
 * O         6     -0.00207             -0.00381              0.00393         *
 * O         7      0.00209             -0.00378             -0.00393         *
 * O         8      0.00207             -0.00381             -0.00393         *
 * O         9      0.00353              0.00754             -0.00391         *
 * O        10      0.00345              0.00739             -0.00389         *
 * O        11     -0.00353              0.00754              0.00391         *
 * O        12     -0.00345              0.00739              0.00389         *
 * O        13     -0.00353             -0.00754              0.00391         *
 * O        14     -0.00345             -0.00739              0.00389         *
 * O        15      0.00353             -0.00754             -0.00391         *
 * O        16      0.00345             -0.00739             -0.00389         *
 * O        17     -0.00262              0.00413             -0.01994         *
 * O        18     -0.00275              0.00414             -0.02000         *
 * O        19      0.00262              0.00413              0.01994         *
 * O        20      0.00275              0.00414              0.02000         *
 * O        21      0.00262             -0.00413              0.01994         *
 * O        22      0.00275             -0.00414              0.02000         *
 * O        23     -0.00262             -0.00413             -0.01994         *
 * O        24     -0.00275             -0.00414             -0.02000         *
 * Na        1      0.00000              0.01158              0.00000         *
 * Na        2      0.00000              0.01153              0.00000         *
 * Na        3      0.00000             -0.01158              0.00000         *
 * Na        4      0.00000             -0.01153              0.00000         *
 * Al        1      0.00000             -0.01596              0.00000         *
 * Al        2      0.00000             -0.01604              0.00000         *
 * Al        3      0.00000              0.01596              0.00000         *
 * Al        4      0.00000              0.01604              0.00000         *
 * Si        1     -0.00270              0.00623              0.01109         *
 * Si        2     -0.00259              0.00633              0.01107         *
 * Si        3      0.00270              0.00623             -0.01109         *
 * Si        4      0.00259              0.00633             -0.01107         *
 * Si        5      0.00270             -0.00623             -0.01109         *
 * Si        6      0.00259             -0.00633             -0.01107         *
 * Si        7     -0.00270             -0.00623              0.01109         *
 * Si        8     -0.00259             -0.00633              0.01107         *
 *                                                                            *
 ******************************************************************************
  
 +------------+-------------+-------------+-----------------+ <-- min BFGS
 |    Step    |   lambda    |   F.delta   |    enthalpy     | <-- min BFGS
 +------------+-------------+-------------+-----------------+ <-- min BFGS
 |  previous  |    0.000000 |    0.000003 |   -16835.338294 | <-- min BFGS
 | trial step |    1.000000 |    0.000002 |   -16835.338365 | <-- min BFGS
 |  line step |    5.567911 |    0.000000 |   -16835.338512 | <-- min BFGS
 +------------+-------------+-------------+-----------------+ <-- min BFGS
  
 BFGS: finished iteration     3 with enthalpy= -1.68353385E+004 eV
  
 +-----------+-----------------+-----------------+------------+-----+ <-- BFGS
 | Parameter |      value      |    tolerance    |    units   | OK? | <-- BFGS
 +-----------+-----------------+-----------------+------------+-----+ <-- BFGS
 |  dE/ion   |   5.455593E-006 |   2.000000E-007 |         eV | No  | <-- BFGS
 |  |F|max   |   2.060537E-002 |   1.000000E-003 |       eV/A | No  | <-- BFGS
 |  |dR|max  |   9.964194E-004 |   1.000000E-003 |          A | Yes | <-- BFGS
 +-----------+-----------------+-----------------+------------+-----+ <-- BFGS
  

================================================================================
 Starting BFGS iteration          4 ...
================================================================================
 
Writing model to jadeite_4_30_GPa_cij__4__3.check
  
 +------------+-------------+-------------+-----------------+ <-- min BFGS
 |    Step    |   lambda    |   F.delta   |    enthalpy     | <-- min BFGS
 +------------+-------------+-------------+-----------------+ <-- min BFGS
 |  previous  |    0.000000 |    0.000002 |   -16835.338512 | <-- min BFGS
[...]
            x  O           20         0.146143   0.509276   0.497017   x
            x  O           21         0.646144   0.990725  -0.002982   x
            x  O           22         0.146143   0.490724  -0.002983   x
            x  O           23         0.353856   0.990725   0.502982   x
            x  O           24         0.853857   0.490724   0.502983   x
            x  Na           1         0.000000   0.302104   0.250000   x
            x  Na           2         0.500000   0.802104   0.250000   x
            x  Na           3         0.000000   0.697896   0.750000   x
            x  Na           4         0.500000   0.197896   0.750000   x
            x  Al           1         0.000000   0.906373   0.250000   x
            x  Al           2         0.500000   0.406373   0.250000   x
            x  Al           3         0.000000   0.093627   0.750000   x
            x  Al           4         0.500000   0.593627   0.750000   x
            x  Si           1         0.290704   0.093847   0.227642   x
            x  Si           2         0.790705   0.593849   0.227642   x
            x  Si           3         0.709296   0.093847   0.272358   x
            x  Si           4         0.209295   0.593849   0.272358   x
            x  Si           5         0.709296   0.906153   0.772358   x
            x  Si           6         0.209295   0.406151   0.772358   x
            x  Si           7         0.290704   0.906153   0.727642   x
            x  Si           8         0.790705   0.406151   0.727642   x
            xxxxxxxxxxxxxxxxxxxxxxxxxxxxxxxxxxxxxxxxxxxxxxxxxxxxxxxxxxxx
 
 
 BFGS: Final Enthalpy     = -1.68353393E+004 eV
 BFGS: Final <frequency>  =     976.77913 cm-1
 
 ***************************** Symmetrised Forces *****************************
 *                                                                            *
 *                        Cartesian components (eV/A)                         *
 * -------------------------------------------------------------------------- *
 *                   x                    y                    z              *
 *                                                                            *
 * O         1      0.00021              0.00019              0.00016         *
 * O         2      0.00055              0.00032              0.00018         *
 * O         3     -0.00021              0.00019             -0.00016         *
 * O         4     -0.00055              0.00032             -0.00018         *
 * O         5     -0.00021             -0.00019             -0.00016         *
 * O         6     -0.00055             -0.00032             -0.00018         *
 * O         7      0.00021             -0.00019              0.00016         *
 * O         8      0.00055             -0.00032              0.00018         *
 * O         9     -0.00027             -0.00075              0.00054         *
 * O        10      0.00023              0.00023              0.00057         *
 * O        11      0.00027             -0.00075             -0.00054         *
 * O        12     -0.00023              0.00023             -0.00057         *
 * O        13      0.00027              0.00075             -0.00054         *
 * O        14     -0.00023             -0.00023             -0.00057         *
 * O        15     -0.00027              0.00075              0.00054         *
 * O        16      0.00023             -0.00023              0.00057         *
 * O        17      0.00025             -0.00061              0.00005         *
 * O        18      0.00028             -0.00076             -0.00017         *
 * O        19     -0.00025             -0.00061             -0.00005         *
 * O        20     -0.00028             -0.00076              0.00017         *
 * O        21     -0.00025              0.00061             -0.00005         *
 * O        22     -0.00028              0.00076              0.00017         *
 * O        23      0.00025              0.00061              0.00005         *
 * O        24      0.00028              0.00076             -0.00017         *
 * Na        1      0.00000              0.00013              0.00000         *
 * Na        2      0.00000              0.00000              0.00000         *
 * Na        3      0.00000             -0.00013              0.00000         *
 * Na        4      0.00000              0.00000              0.00000         *
 * Al        1      0.00000             -0.00072              0.00000         *
 * Al        2      0.00000             -0.00050              0.00000         *
 * Al        3      0.00000              0.00072              0.00000         *
 * Al        4      0.00000              0.00050              0.00000         *
 * Si        1      0.00057              0.00054             -0.00018         *
 * Si        2     -0.00017             -0.00057             -0.00006         *
 * Si        3     -0.00057              0.00054              0.00018         *
 * Si        4      0.00017             -0.00057              0.00006         *
 * Si        5     -0.00057             -0.00054              0.00018         *
 * Si        6      0.00017              0.00057              0.00006         *
 * Si        7      0.00057             -0.00054             -0.00018         *
 * Si        8     -0.00017              0.00057             -0.00006         *
 *                                                                            *
 ******************************************************************************
 
 *********** Symmetrised Stress Tensor ***********
 *                                               *
 *          Cartesian components (GPa)           *
 * --------------------------------------------- *
 *             x             y             z     *
 *                                               *
 *  x     -4.044804      0.000000      0.500256  *
 *  y      0.000000     -3.959922      0.000000  *
 *  z      0.500256      0.000000     -3.839824  *
 *                                               *
 *  Pressure:    3.9482                          *
 *                                               *
 *************************************************
 
 Pseudo atomic calculation performed for O 2s2 2p4
 
 Converged in 36 iterations to a total energy of -429.6485 eV
 
 
 Pseudo atomic calculation performed for Na 2s2 2p6 3s1
 
 Converged in 33 iterations to a total energy of -1302.8467 eV
 
 
 Pseudo atomic calculation performed for Al 3s2 3p1
 
 Converged in 20 iterations to a total energy of -52.7392 eV
 
 
 Pseudo atomic calculation performed for Si 3s2 3p2
 
 Converged in 21 iterations to a total energy of -101.9044 eV
 
Charge spilling parameter for spin component 1 = 0.85%
 
     Atomic Populations (Mulliken)
     -----------------------------
Species   Ion     s      p      d      f     Total  Charge (e)
==============================================================
  O        1     1.85   5.24   0.00   0.00   7.08    -1.08
  O        2     1.85   5.24   0.00   0.00   7.08    -1.08
  O        3     1.85   5.24   0.00   0.00   7.08    -1.08
  O        4     1.85   5.24   0.00   0.00   7.08    -1.08
  O        5     1.85   5.24   0.00   0.00   7.08    -1.08
  O        6     1.85   5.24   0.00   0.00   7.08    -1.08
  O        7     1.85   5.24   0.00   0.00   7.08    -1.08
  O        8     1.85   5.24   0.00   0.00   7.08    -1.08
  O        9     1.84   5.29   0.00   0.00   7.12    -1.12
  O       10     1.84   5.29   0.00   0.00   7.12    -1.12
  O       11     1.84   5.29   0.00   0.00   7.12    -1.12
  O       12     1.84   5.29   0.00   0.00   7.12    -1.12
  O       13     1.84   5.29   0.00   0.00   7.12    -1.12
  O       14     1.84   5.29   0.00   0.00   7.12    -1.12
  O       15     1.84   5.29   0.00   0.00   7.12    -1.12
  O       16     1.84   5.29   0.00   0.00   7.12    -1.12
  O       17     1.83   5.30   0.00   0.00   7.12    -1.12
  O       18     1.83   5.30   0.00   0.00   7.12    -1.12
  O       19     1.83   5.30   0.00   0.00   7.12    -1.12
  O       20     1.83   5.30   0.00   0.00   7.12    -1.12
  O       21     1.83   5.30   0.00   0.00   7.12    -1.12
  O       22     1.83   5.30   0.00   0.00   7.12    -1.12
  O       23     1.83   5.30   0.00   0.00   7.12    -1.12
  O       24     1.83   5.30   0.00   0.00   7.12    -1.12
  Na       1     2.04   5.77   0.00   0.00   7.82     1.18
  Na       2     2.04   5.77   0.00   0.00   7.82     1.18
  Na       3     2.04   5.77   0.00   0.00   7.82     1.18
  Na       4     2.04   5.77   0.00   0.00   7.82     1.18
  Al       1     0.51   0.92   0.00   0.00   1.42     1.58
  Al       2     0.51   0.92   0.00   0.00   1.42     1.58
  Al       3     0.51   0.92   0.00   0.00   1.42     1.58
  Al       4     0.51   0.92   0.00   0.00   1.42     1.58
  Si       1     0.69   1.36   0.00   0.00   2.05     1.95
  Si       2     0.69   1.36   0.00   0.00   2.05     1.95
  Si       3     0.69   1.36   0.00   0.00   2.05     1.95
  Si       4     0.69   1.36   0.00   0.00   2.05     1.95
  Si       5     0.69   1.36   0.00   0.00   2.05     1.95
  Si       6     0.69   1.36   0.00   0.00   2.05     1.95
  Si       7     0.69   1.36   0.00   0.00   2.05     1.95
  Si       8     0.69   1.36   0.00   0.00   2.05     1.95
==============================================================
 
     Bond                     Population      Length (A)
============================================================
   O 010 --   Si 002               0.76        1.59265
   O 016 --   Si 008               0.76        1.59265
   O 012 --   Si 004               0.76        1.59265
   O 014 --   Si 006               0.76        1.59265
   O 011 --   Si 003               0.76        1.59267
   O 009 --   Si 001               0.76        1.59267
   O 015 --   Si 007               0.76        1.59267
   O 013 --   Si 005               0.76        1.59267
   O 024 --   Si 008               0.56        1.63115
   O 022 --   Si 006               0.56        1.63115
   O 020 --   Si 004               0.56        1.63115
   O 018 --   Si 002               0.56        1.63115
   O 021 --   Si 005               0.56        1.63115
   O 023 --   Si 007               0.56        1.63115
   O 019 --   Si 003               0.56        1.63115
   O 017 --   Si 001               0.56        1.63115
   O 007 --   Si 007               0.60        1.63721
   O 001 --   Si 001               0.60        1.63721
   O 005 --   Si 005               0.60        1.63721
   O 003 --   Si 003               0.60        1.63721
   O 008 --   Si 008               0.60        1.63722
   O 002 --   Si 002               0.60        1.63722
   O 006 --   Si 006               0.60        1.63722
   O 004 --   Si 004               0.60        1.63722
   O 017 --   Si 007               0.58        1.64184
   O 019 --   Si 005               0.58        1.64184
   O 023 --   Si 001               0.58        1.64184
   O 021 --   Si 003               0.58        1.64184
   O 018 --   Si 008               0.58        1.64185
   O 020 --   Si 006               0.58        1.64185
   O 022 --   Si 004               0.58        1.64185
   O 024 --   Si 002               0.58        1.64185
   O 011 --   Al 002               0.42        1.85526
   O 013 --   Al 004               0.42        1.85526
   O 009 --   Al 002               0.42        1.85526
   O 015 --   Al 004               0.42        1.85526
   O 014 --   Al 003               0.42        1.85527
   O 012 --   Al 001               0.42        1.85527
   O 016 --   Al 003               0.42        1.85527
   O 010 --   Al 001               0.42        1.85527
   O 004 --   Al 004               0.32        1.94798
   O 002 --   Al 004               0.32        1.94798
   O 006 --   Al 002               0.32        1.94798
   O 008 --   Al 002               0.32        1.94798
   O 005 --   Al 001               0.32        1.94798
   O 007 --   Al 001               0.32        1.94798
   O 001 --   Al 003               0.32        1.94798
   O 003 --   Al 003               0.32        1.94798
   O 006 --   Al 004               0.31        1.99065
   O 008 --   Al 004               0.31        1.99065
   O 004 --   Al 002               0.31        1.99065
   O 002 --   Al 002               0.31        1.99065
   O 005 --   Al 003               0.31        1.99065
   O 007 --   Al 003               0.31        1.99065
   O 003 --   Al 001               0.31        1.99065
   O 001 --   Al 001               0.31        1.99065
   O 003 --   Na 001              -0.01        2.35482
   O 001 --   Na 001              -0.01        2.35482
   O 005 --   Na 003              -0.01        2.35482
   O 007 --   Na 003              -0.01        2.35482
   O 006 --   Na 004              -0.01        2.35483
   O 008 --   Na 004              -0.01        2.35483
   O 004 --   Na 002              -0.01        2.35483
   O 002 --   Na 002              -0.01        2.35483
   O 017 --   Na 002              -0.04        2.37749
   O 019 --   Na 002              -0.04        2.37749
   O 023 --   Na 004              -0.04        2.37749
   O 021 --   Na 004              -0.04        2.37749
   O 022 --   Na 003              -0.04        2.37749
   O 020 --   Na 001              -0.04        2.37749
   O 024 --   Na 003              -0.04        2.37749
   O 018 --   Na 001              -0.04        2.37749
   O 011 --   Na 004              -0.06        2.41294
   O 009 --   Na 004              -0.06        2.41294
   O 013 --   Na 002              -0.06        2.41294
   O 015 --   Na 002              -0.06        2.41294
   O 012 --   Na 003              -0.06        2.41294
   O 016 --   Na 001              -0.06        2.41294
   O 014 --   Na 001              -0.06        2.41294
   O 010 --   Na 003              -0.06        2.41294
   O 002 --    O 006              -0.10        2.47654
   O 004 --    O 008              -0.10        2.47654
   O 003 --    O 007              -0.10        2.47654
   O 001 --    O 005              -0.10        2.47654
   O 016 --    O 018              -0.10        2.58326
   O 014 --    O 020              -0.10        2.58326
   O 012 --    O 022              -0.10        2.58326
   O 010 --    O 024              -0.10        2.58326
   O 009 --    O 023              -0.10        2.58327
   O 011 --    O 021              -0.10        2.58327
   O 015 --    O 017              -0.10        2.58327
   O 013 --    O 019              -0.10        2.58327
   O 019 --    O 021              -0.17        2.61479
   O 017 --    O 023              -0.17        2.61479
   O 018 --    O 024              -0.17        2.61479
   O 020 --    O 022              -0.17        2.61479
   O 005 --    O 021              -0.09        2.63572
   O 003 --    O 019              -0.09        2.63572
   O 007 --    O 023              -0.09        2.63572
   O 001 --    O 017              -0.09        2.63572
   O 008 --    O 024              -0.09        2.63572
   O 002 --    O 018              -0.09        2.63572
   O 006 --    O 022              -0.09        2.63572
   O 004 --    O 020              -0.09        2.63572
   O 007 --    O 017              -0.08        2.64634
   O 003 --    O 021              -0.08        2.64634
   O 001 --    O 023              -0.08        2.64634
   O 005 --    O 019              -0.08        2.64634
   O 008 --    O 018              -0.08        2.64635
   O 006 --    O 020              -0.08        2.64635
   O 002 --    O 024              -0.08        2.64635
   O 004 --    O 022              -0.08        2.64635
   O 014 --    O 022              -0.08        2.65012
   O 016 --    O 024              -0.08        2.65012
   O 012 --    O 020              -0.08        2.65012
   O 010 --    O 018              -0.08        2.65012
   O 011 --    O 019              -0.08        2.65013
   O 009 --    O 017              -0.08        2.65013
   O 013 --    O 021              -0.08        2.65013
   O 015 --    O 023              -0.08        2.65013
   O 002 --    O 013              -0.07        2.68869
   O 004 --    O 015              -0.07        2.68869
   O 008 --    O 011              -0.07        2.68869
   O 006 --    O 009              -0.07        2.68869
   O 001 --    O 014              -0.07        2.68870
   O 005 --    O 010              -0.07        2.68870
   O 003 --    O 016              -0.07        2.68870
   O 007 --    O 012              -0.07        2.68870
   O 023 --   Na 002              -0.02        2.70241
   O 017 --   Na 004              -0.02        2.70241
   O 021 --   Na 002              -0.02        2.70241
   O 019 --   Na 004              -0.02        2.70241
   O 018 --   Na 003              -0.02        2.70241
   O 022 --   Na 001              -0.02        2.70241
   O 020 --   Na 003              -0.02        2.70241
   O 024 --   Na 001              -0.02        2.70241
   O 006 --    O 008              -0.05        2.70587
   O 002 --    O 004              -0.05        2.70587
   O 001 --    O 003              -0.05        2.70587
   O 005 --    O 007              -0.05        2.70587
   O 008 --    O 013              -0.05        2.71321
   O 006 --    O 015              -0.05        2.71321
   O 004 --    O 009              -0.05        2.71321
   O 002 --    O 011              -0.05        2.71321
   O 001 --    O 012              -0.05        2.71322
   O 007 --    O 014              -0.05        2.71322
   O 005 --    O 016              -0.05        2.71322
   O 003 --    O 010              -0.05        2.71322
   O 018 --    O 022              -0.04        2.76038
   O 020 --    O 024              -0.04        2.76038
   O 019 --    O 023              -0.04        2.76038
   O 017 --    O 021              -0.04        2.76038
   O 008 --    O 016              -0.06        2.77466
   O 002 --    O 010              -0.06        2.77466
   O 006 --    O 014              -0.06        2.77466
   O 004 --    O 012              -0.06        2.77466
   O 001 --    O 009              -0.06        2.77466
   O 003 --    O 011              -0.06        2.77466
   O 007 --    O 015              -0.06        2.77466
   O 005 --    O 013              -0.06        2.77466
   O 013 --    O 015              -0.05        2.79212
   O 009 --    O 011              -0.05        2.79212
   O 014 --    O 016              -0.05        2.79213
   O 010 --    O 012              -0.05        2.79213
   O 004 --    O 013              -0.04        2.81812
   O 002 --    O 015              -0.04        2.81812
   O 006 --    O 011              -0.04        2.81812
   O 008 --    O 009              -0.04        2.81812
   O 005 --    O 012              -0.04        2.81813
   O 003 --    O 014              -0.04        2.81813
   O 007 --    O 010              -0.04        2.81813
   O 001 --    O 016              -0.04        2.81813
   O 015 --    O 020              -0.03        2.90428
   O 013 --    O 018              -0.03        2.90428
   O 009 --    O 022              -0.03        2.90428
   O 011 --    O 024              -0.03        2.90428
   O 016 --    O 019              -0.03        2.90428
   O 010 --    O 021              -0.03        2.90428
   O 014 --    O 017              -0.03        2.90428
   O 012 --    O 023              -0.03        2.90428
   O 004 --    O 006              -0.06        2.92364
   O 002 --    O 008              -0.06        2.92364
   O 003 --    O 005              -0.06        2.92364
   O 001 --    O 007              -0.06        2.92364
============================================================
 
 
Writing model to jadeite_4_30_GPa_cij__4__3.check
 
Writing analysis data to jadeite_4_30_GPa_cij__4__3.castep_bin
Initialisation time =      1.95 s
Calculation time    =   1595.50 s
Finalisation time   =      0.93 s
Total time          =   1598.38 s
Peak Memory Use     = 221788 kB
