 +-------------------------------------------------+
 |                                                 |
 |      CCC   AA    SSS  TTTTT  EEEEE  PPPP        |
 |     C     A  A  S       T    E      P   P       |
 |     C     AAAA   SS     T    EEE    PPPP        |
 |     C     A  A     S    T    E      P           |
 |      CCC  A  A  SSS     T    EEEEE  P           |
 |                                                 |
 +-------------------------------------------------+
 |                                                 |
 | Welcome to Academic Release CASTEP version 5.02 |
 | Ab Initio Total Energy Program                  |
 |                                                 |
 | Authors:                                        |
 | M. Segall, M. Probert, C. Pickard, P. Hasnip,   |
 | S. Clark, K. Refson, M. Payne                   |
 |                                                 |
 | Contributors:                                   |
 | P. Lindan, P. Haynes, J. White, V. Milman,      |
 | N. Govind, M. Gibson, P. Tulip, V. Cocula,      |
 | B. Montanari, D. Quigley, M. Glover,            |
 | L. Bernasconi, A. Perlov, M. Plummer            |
 |                                                 |
 | Copyright (c) 2000 - 2009                       |
 |                                                 |
 |     Distributed under the terms of an           |
 |     Agreement between the United Kingdom        |
 |     Car-Parrinello (UKCP) Consortium,           |
 |     Daresbury Laboratory and Accelrys, Inc.     |
 |                                                 |
 | Please cite                                     |
 |                                                 |
 |     "First principles methods using CASTEP"     |
 |                                                 |
 |         Zeitschrift fuer Kristallographie       |
 |           220(5-6) pp. 567-570 (2005)           |
 |                                                 |
 | S. J. Clark, M. D. Segall, C. J. Pickard,       |
 | P. J. Hasnip, M. J. Probert, K. Refson,         |
 | M. C. Payne                                     |
 |                                                 |
 |       in all publications arising from          |
 |              your use of CASTEP                 |
 |                                                 |
 +-------------------------------------------------+
 
 
 Pseudo atomic calculation performed for O 2s2 2p4
 
 Converged in 36 iterations to a total energy of -429.6485 eV
 
 
 Pseudo atomic calculation performed for Na 2s2 2p6 3s1
 
 Converged in 33 iterations to a total energy of -1302.8467 eV
 
 
 Pseudo atomic calculation performed for Al 3s2 3p1
 
 Converged in 20 iterations to a total energy of -52.7392 eV
 
 
 Pseudo atomic calculation performed for Si 3s2 3p2
 
 Converged in 21 iterations to a total energy of -101.9044 eV
 
Calculation parallelised over   36 nodes.
K-points are distributed over    3 groups, each containing   12 nodes.

 ************************************ Title ************************************
 

 ***************************** General Parameters ******************************
  
 output verbosity                               : normal  (1)
 write checkpoint data to                       : jadeite_4_30_GPa.check
 type of calculation                            : geometry optimization
 stress calculation                             : on
 density difference calculation                 : off
 electron localisation func (ELF) calculation   : off
 Hirshfeld analysis                             : off
 unlimited duration calculation
 timing information                             : on
 memory usage estimate                          : on
 write final potential to formatted file        : off
 write final density to formatted file          : off
  
 output         length unit                     : A
 output           mass unit                     : amu
 output           time unit                     : ps
 output         charge unit                     : e
 output         energy unit                     : eV
 output          force unit                     : eV/A
 output       velocity unit                     : A/ps
 output       pressure unit                     : GPa
 output     inv_length unit                     : 1/A
 output      frequency unit                     : cm-1
 output force constant unit                     : eV/A**2
 output         volume unit                     : A**3
 output   IR intensity unit                     : (D/A)**2/amu
 output         dipole unit                     : D
 output         efield unit                     : eV/A/e
  
 wavefunctions paging                           : none
 data distribution                              : optimal for this architecture
 optimization strategy                          : maximize speed(+++)

 *********************** Exchange-Correlation Parameters ***********************
  
 using functional                               : Perdew Burke Ernzerhof
 Divergence correction                          : off
 DFT+D: Semi-empirical dispersion correction    : off

 ************************* Pseudopotential Parameters **************************
  
 pseudopotential representation                 : reciprocal space
 <beta|phi> representation                      : reciprocal space

 **************************** Basis Set Parameters *****************************
  
 plane wave basis set cut-off                   :   700.0000   eV
 finite basis set correction                    : automatic
 number of sample energies                      :          3
           sample  spacing                      :     5.0000   eV

 **************************** Electronic Parameters ****************************
  
 number of  electrons                           :  224.0    
 net charge of system                           :  0.000    
 net spin   of system                           :  0.000    
 number of  up  spins                           :  112.0    
 number of down spins                           :  112.0    
 treating system as non-spin-polarized
 number of bands                                :        112

 ********************* Electronic Minimization Parameters **********************
  
 Method: Treating system as non-metallic,
         and number of  SD  steps               :          1
         and number of  CG  steps               :          4
  
 total energy / atom convergence tol.           : 0.1000E-07   eV
 max force / atom convergence tol.              : ignored
 convergence tolerance window                   :          3   cycles
 max. number of SCF cycles                      :        100

 *********************** Population Analysis Parameters ************************
  
 Population analysis with cutoff                :  3.000       A

 ********************** Geometry Optimization Parameters ***********************
  
 optimization method                            : BFGS
 variable cell method                           : fixed basis quality
 max. number of steps                           :        300
 estimated bulk modulus                         :  500.0       GPa
 estimated <frequency>                          :  1668.       cm-1
 line minimiser tolerance                       :     0.4000
 total energy convergence tolerance             : 0.2000E-06   eV/atom
        max ionic |force| tolerance             : 0.1000E-02   eV/A
 max ionic |displacement| tolerance             : 0.1000E-02   A
   max |stress component| tolerance             : 0.1000E-02   GPa
 convergence tolerance window                   :          2   steps
 backup results every                           :          1   steps

 *******************************************************************************
  
 
                           -------------------------------
                                      Unit Cell
                           -------------------------------
        Real Lattice(A)                      Reciprocal Lattice(1/A)
   9.5000000   0.0000000   0.0000000        0.6613879   0.0000000   0.1926458
   0.0000000   8.6000000   0.0000000        0.0000000   0.7306029   0.0000000
  -1.4541981   0.0000000   4.9925252        0.0000000   0.0000000   1.2585185
 
                       Lattice parameters(A)       Cell Angles
                    a =    9.500000          alpha =   90.000000
                    b =    8.600000          beta  =  106.239525
                    c =    5.200000          gamma =   90.000000
 
                       Current cell volume =  407.889308       A**3
 
                           -------------------------------
                                     Cell Contents
                           -------------------------------
                         Total number of ions in cell =   40
                      Total number of species in cell =    4
                        Max number of any one species =   24
 
            xxxxxxxxxxxxxxxxxxxxxxxxxxxxxxxxxxxxxxxxxxxxxxxxxxxxxxxxxxxx
            x  Element    Atom        Fractional coordinates of atoms  x
            x            Number           u          v          w      x
            x----------------------------------------------------------x
            x  O            1         0.109351   0.075983   0.127226   x
            x  O            2         0.609478   0.575896   0.127173   x
            x  O            3         0.890648   0.075983   0.372774   x
            x  O            4         0.390522   0.575896   0.372827   x
            x  O            5         0.890648   0.924016   0.872774   x
            x  O            6         0.390522   0.424103   0.872827   x
            x  O            7         0.109351   0.924016   0.627226   x
            x  O            8         0.609478   0.424103   0.627173   x
            x  O            9         0.361728   0.261047   0.290333   x
            x  O           10         0.861768   0.761054   0.290238   x
            x  O           11         0.638272   0.261047   0.209667   x
            x  O           12         0.138232   0.761054   0.209762   x
            x  O           13         0.638272   0.738952   0.709667   x
            x  O           14         0.138232   0.238945   0.709762   x
            x  O           15         0.361728   0.738952   0.790333   x
            x  O           16         0.861768   0.238945   0.790238   x
            x  O           17         0.351185   0.004570   1.007530   x
            x  O           18         0.851411   0.504614   1.007518   x
            x  O           19         0.648814   0.004570   0.492470   x
            x  O           20         0.148589   0.504614   0.492483   x
            x  O           21         0.648814   0.995429  -0.007530   x
            x  O           22         0.148589   0.495386  -0.007517   x
            x  O           23         0.351185   0.995429   0.507530   x
            x  O           24         0.851411   0.495386   0.507518   x
            x  Na           1         0.000000   0.299298   0.250000   x
            x  Na           2         0.500000   0.799268   0.250000   x
            x  Na           3         0.000000   0.700702   0.750000   x
            x  Na           4         0.500000   0.200732   0.750000   x
            x  Al           1         0.000000   0.904121   0.250000   x
            x  Al           2         0.500000   0.404072   0.250000   x
            x  Al           3         0.000000   0.095879   0.750000   x
            x  Al           4         0.500000   0.595928   0.750000   x
            x  Si           1         0.289852   0.092914   0.226787   x
            x  Si           2         0.790013   0.592860   0.226790   x
            x  Si           3         0.710147   0.092914   0.273213   x
            x  Si           4         0.209986   0.592860   0.273210   x
            x  Si           5         0.710147   0.907086   0.773213   x
            x  Si           6         0.209986   0.407139   0.773210   x
            x  Si           7         0.289852   0.907086   0.726787   x
            x  Si           8         0.790013   0.407139   0.726790   x
            xxxxxxxxxxxxxxxxxxxxxxxxxxxxxxxxxxxxxxxxxxxxxxxxxxxxxxxxxxxx
 
 
                         No user defined ionic velocities
 
                           -------------------------------
                                   Details of Species
                           -------------------------------
 
                               Mass of species in AMU
                                    O   15.9994000
                                    Na   22.9897700
                                    Al   26.9815400
                                    Si   28.0855000
 
                          Electric Quadrupole Moment (Barn)
                                    O   -0.0255800 Isotope 17
                                    Na    0.1040000 Isotope 23
                                    Al    0.1466000 Isotope 27
                                    Si    1.0000000 No Isotope Defined
 
                          Files used for pseudopotentials:
                                    O O_00PBE.usp
                                    Na Na_00PBE.usp
                                    Al Al_00PBE.usp
                                    Si Si_00PBE.usp
 
                           -------------------------------
                              k-Points For BZ Sampling
                           -------------------------------
                       MP grid size for SCF calculation is  2  2  3
                         Number of kpoints used = 3
 
             +++++++++++++++++++++++++++++++++++++++++++++++++++++++
             +  Number       Fractional coordinates        Weight  +
             +-----------------------------------------------------+
             +     1  -0.250000  -0.250000   0.333333   0.3333333  +
             +     2   0.250000   0.250000   0.000000   0.3333333  +
             +     3   0.250000   0.250000   0.333333   0.3333333  +
             +++++++++++++++++++++++++++++++++++++++++++++++++++++++
 
                           -------------------------------
                               Symmetry and Constraints
                           -------------------------------
 
                      Number of symmetry operations   = 4
                      Number of ionic constraints     = 3
                      Maximum deviation from symmetry = 0.137761E-14     ANG
               Point group of crystal =     5: C2h, 2/m, 2/m
           Set iprint > 1 for details on symmetry rotations/translations
 
                          Centre of mass is constrained
             Set iprint > 1 for details of linear ionic constraints
 
                         Number of cell constraints= 2
                         Cell constraints are:  1 2 3 0 5 0
 
                         External pressure/stress (GPa)
                          4.30000   0.00000   0.00000
                                    4.30000   0.00000
                                              4.30000
  
+---------------- MEMORY AND SCRATCH DISK ESTIMATES PER NODE -----------------+
|                                                     Memory          Disk    |
| Model and support data                               60.5 MB         0.0 MB |
| Electronic energy minimisation requirements          17.0 MB         0.0 MB |
|                                               ----------------------------- |
| Approx. total storage required per node              77.5 MB         0.0 MB |
|                                                                             |
| Requirements will fluctuate during execution and may exceed these estimates |
+-----------------------------------------------------------------------------+
Calculating finite basis set correction with  3 cut-off energies.
Calculating total energy with cut-off of  690.000eV.
------------------------------------------------------------------------ <-- SCF
SCF loop      Energy                           Energy gain       Timer   <-- SCF
                                               per atom          (sec)   <-- SCF
------------------------------------------------------------------------ <-- SCF
Initial  -1.58605443E+003                                          5.31  <-- SCF
      1  -1.64902693E+004                    3.72605371E+002      16.72  <-- SCF
      2  -1.68136133E+004                    8.08359993E+000      28.33  <-- SCF
      3  -1.68439347E+004                    7.58036055E-001      39.56  <-- SCF
      4  -1.68460027E+004                    5.16994296E-002      50.50  <-- SCF
      5  -1.68460242E+004                    5.37787690E-004      61.44  <-- SCF
      6  -1.68460247E+004                    1.13605485E-005      72.34  <-- SCF
      7  -1.68460247E+004                    3.47810316E-007      83.35  <-- SCF
      8  -1.68460247E+004                    1.11351731E-008      94.33  <-- SCF
      9  -1.68460247E+004                    3.62799157E-010     105.27  <-- SCF
     10  -1.68460247E+004                    1.20649474E-011     116.29  <-- SCF
------------------------------------------------------------------------ <-- SCF
 
Final energy =  -16846.02468440     eV
(energy not corrected for finite basis set)
 
Calculating total energy with cut-off of  695.000eV.
------------------------------------------------------------------------ <-- SCF
SCF loop      Energy                           Energy gain       Timer   <-- SCF
                                               per atom          (sec)   <-- SCF
------------------------------------------------------------------------ <-- SCF
Initial  -1.68460247E+004                                        120.15  <-- SCF
      1  -1.68460318E+004                    1.77967244E-004     131.28  <-- SCF
      2  -1.68460318E+004                    1.39365611E-010     142.78  <-- SCF
      3  -1.68460318E+004                    6.96054660E-013     156.67  <-- SCF
------------------------------------------------------------------------ <-- SCF
 
Final energy =  -16846.03180309     eV
(energy not corrected for finite basis set)
 
Calculating total energy with cut-off of  700.000eV.
------------------------------------------------------------------------ <-- SCF
SCF loop      Energy                           Energy gain       Timer   <-- SCF
                                               per atom          (sec)   <-- SCF
------------------------------------------------------------------------ <-- SCF
Initial  -1.68460318E+004                                        160.51  <-- SCF
      1  -1.68460380E+004                    1.54238868E-004     171.57  <-- SCF
      2  -1.68460380E+004                    1.11987461E-010     183.09  <-- SCF
      3  -1.68460380E+004                    5.41375847E-013     198.10  <-- SCF
------------------------------------------------------------------------ <-- SCF
 
Final energy =  -16846.03797265     eV
(energy not corrected for finite basis set)
 
 For future reference: finite basis dEtot/dlog(Ecut) =      -0.883455eV
 Total energy corrected for finite basis set =  -16846.037420 eV
 
+---------------- MEMORY AND SCRATCH DISK ESTIMATES PER NODE -----------------+
|                                                     Memory          Disk    |
| Model and support data                               60.5 MB         0.0 MB |
| Geometry minimisation requirements                   19.7 MB         0.0 MB |
|                                               ----------------------------- |
| Approx. total storage required per node              80.3 MB         0.0 MB |
|                                                                             |
| Requirements will fluctuate during execution and may exceed these estimates |
+-----------------------------------------------------------------------------+
 
 
 *********************************** Forces ***********************************
 *                                                                            *
 *                        Cartesian components (eV/A)                         *
 * -------------------------------------------------------------------------- *
 *                   x                    y                    z              *
 *                                                                            *
 * O         1      0.11251             -0.01328              0.19370         *
 * O         2      0.11121             -0.01127              0.19552         *
 * O         3     -0.11251             -0.01328             -0.19370         *
 * O         4     -0.11121             -0.01127             -0.19552         *
 * O         5     -0.11251              0.01328             -0.19370         *
 * O         6     -0.11121              0.01127             -0.19552         *
 * O         7      0.11251              0.01328              0.19370         *
 * O         8      0.11121              0.01127              0.19552         *
 * O         9     -0.09588              0.10045              0.10189         *
 * O        10     -0.10011              0.09849              0.10405         *
 * O        11      0.09588              0.10045             -0.10189         *
 * O        12      0.10011              0.09849             -0.10405         *
 * O        13      0.09588             -0.10045             -0.10189         *
 * O        14      0.10011             -0.09849             -0.10405         *
 * O        15     -0.09588             -0.10045              0.10189         *
 * O        16     -0.10011             -0.09849              0.10405         *
 * O        17      0.37830             -0.22919             -0.44443         *
 * O        18      0.37133             -0.22911             -0.44594         *
 * O        19     -0.37830             -0.22919              0.44443         *
 * O        20     -0.37133             -0.22911              0.44594         *
 * O        21     -0.37830              0.22919              0.44443         *
 * O        22     -0.37133              0.22911              0.44594         *
 * O        23      0.37830              0.22919             -0.44443         *
 * O        24      0.37133              0.22911             -0.44594         *
 * Na        1      0.00000              0.07752              0.00000         *
 * Na        2      0.00000              0.07890              0.00000         *
 * Na        3      0.00000             -0.07752              0.00000         *
 * Na        4      0.00000             -0.07890              0.00000         *
 * Al        1      0.00000              0.16702              0.00000         *
 * Al        2      0.00000              0.17115              0.00000         *
 * Al        3      0.00000             -0.16702              0.00000         *
 * Al        4      0.00000             -0.17115              0.00000         *
 * Si        1     -0.57536              0.29465              0.24329         *
 * Si        2     -0.58773              0.30171              0.23833         *
 * Si        3      0.57536              0.29465             -0.24329         *
 * Si        4      0.58773              0.30171             -0.23833         *
 * Si        5      0.57536             -0.29465             -0.24329         *
 * Si        6      0.58773             -0.30171             -0.23833         *
 * Si        7     -0.57536             -0.29465              0.24329         *
 * Si        8     -0.58773             -0.30171              0.23833         *
 *                                                                            *
 ******************************************************************************
 
 ***************** Stress Tensor *****************
 *                                               *
 *          Cartesian components (GPa)           *
 * --------------------------------------------- *
 *             x             y             z     *
 *                                               *
 *  x     -1.705855      0.000000      4.347273  *
 *  y      0.000000     -3.870880      0.000000  *
 *  z      4.347273      0.000000     -4.181797  *
 *                                               *
 *  Pressure:    3.2528                          *
 *                                               *
 *************************************************
 BFGS: finished iteration     0 with enthalpy= -1.68350903E+004 eV
  
 +-----------+-----------------+-----------------+------------+-----+ <-- BFGS
 | Parameter |      value      |    tolerance    |    units   | OK? | <-- BFGS
 +-----------+-----------------+-----------------+------------+-----+ <-- BFGS
 |  dE/ion   |   0.000000E+000 |   2.000000E-007 |         eV | No  | <-- BFGS
 |  |F|max   |   7.023199E-001 |   1.000000E-003 |       eV/A | No  | <-- BFGS
 |  |dR|max  |   0.000000E+000 |   1.000000E-003 |          A | No  | <-- BFGS
 |   Smax    |   4.347273E+000 |   1.000000E-003 |        GPa | No  | <-- BFGS
 +-----------+-----------------+-----------------+------------+-----+ <-- BFGS
  

================================================================================
 Starting BFGS iteration          1 ...
================================================================================
 
Writing model to jadeite_4_30_GPa.check
  
 +------------+-------------+-------------+-----------------+ <-- min BFGS
 |    Step    |   lambda    |   F.delta   |    enthalpy     | <-- min BFGS
 +------------+-------------+-------------+-----------------+ <-- min BFGS
 |  previous  |    0.000000 |    0.004175 |   -16835.090286 | <-- min BFGS
 +------------+-------------+-------------+-----------------+ <-- min BFGS
  

--------------------------------------------------------------------------------
 BFGS: starting iteration         1 with trial guess (lambda=  1.000000)
--------------------------------------------------------------------------------
 
                           -------------------------------
                                      Unit Cell
                           -------------------------------
        Real Lattice(A)              Reciprocal Lattice(1/A)
   9.4835704   0.0000000  -0.0275327        0.6630986   0.0000000   0.1945829
   0.0000000   8.5975397   0.0000000        0.0000000   0.7308120   0.0000000
  -1.4661525   0.0000000   4.9963463        0.0036541   0.0000000   1.2586283
 
                       Lattice parameters(A)       Cell Angles
                    a =    9.483610          alpha =   90.000000
                    b =    8.597540          beta  =  106.520399
                    c =    5.207022          gamma =   90.000000
 
                Current cell volume =  407.031902 A**3
 
                           -------------------------------
                                     Cell Contents
                           -------------------------------
 
            xxxxxxxxxxxxxxxxxxxxxxxxxxxxxxxxxxxxxxxxxxxxxxxxxxxxxxxxxxxx
            x  Element    Atom        Fractional coordinates of atoms  x
            x            Number           u          v          w      x
            x----------------------------------------------------------x
            x  O            1         0.109437   0.075976   0.127414   x
            x  O            2         0.609564   0.575890   0.127362   x
            x  O            3         0.890563   0.075976   0.372586   x
            x  O            4         0.390436   0.575890   0.372638   x
            x  O            5         0.890563   0.924023   0.872586   x
            x  O            6         0.390436   0.424110   0.872638   x
            x  O            7         0.109437   0.924023   0.627414   x
            x  O            8         0.609564   0.424110   0.627362   x
            x  O            9         0.361695   0.261104   0.290432   x
            x  O           10         0.861732   0.761110   0.290339   x
            x  O           11         0.638305   0.261104   0.209568   x
            x  O           12         0.138268   0.761110   0.209661   x
            x  O           13         0.638305   0.738896   0.709568   x
            x  O           14         0.138268   0.238890   0.709661   x
            x  O           15         0.361695   0.738896   0.790432   x
            x  O           16         0.861732   0.238890   0.790339   x
            x  O           17         0.351312   0.004441   1.007099   x
            x  O           18         0.851534   0.504485   1.007086   x
            x  O           19         0.648688   0.004441   0.492901   x
            x  O           20         0.148466   0.504485   0.492914   x
            x  O           21         0.648688   0.995558  -0.007099   x
            x  O           22         0.148466   0.495515  -0.007086   x
            x  O           23         0.351312   0.995558   0.507099   x
            x  O           24         0.851534   0.495515   0.507086   x
            x  Na           1         0.000000   0.299341   0.250000   x
            x  Na           2         0.500000   0.799312   0.250000   x
            x  Na           3         0.000000   0.700658   0.750000   x
            x  Na           4         0.500000   0.200687   0.750000   x
            x  Al           1         0.000000   0.904215   0.250000   x
            x  Al           2         0.500000   0.404168   0.250000   x
            x  Al           3         0.000000   0.095785   0.750000   x
            x  Al           4         0.500000   0.595832   0.750000   x
            x  Si           1         0.289596   0.093079   0.227023   x
            x  Si           2         0.789750   0.593030   0.227021   x
            x  Si           3         0.710404   0.093079   0.272977   x
            x  Si           4         0.210250   0.593030   0.272979   x
            x  Si           5         0.710404   0.906920   0.772977   x
            x  Si           6         0.210250   0.406970   0.772979   x
            x  Si           7         0.289596   0.906920   0.727023   x
            x  Si           8         0.789750   0.406970   0.727021   x
            xxxxxxxxxxxxxxxxxxxxxxxxxxxxxxxxxxxxxxxxxxxxxxxxxxxxxxxxxxxx
 
 
------------------------------------------------------------------------ <-- SCF
SCF loop      Energy                           Energy gain       Timer   <-- SCF
                                               per atom          (sec)   <-- SCF
------------------------------------------------------------------------ <-- SCF
Initial  -1.68458887E+004                                        209.64  <-- SCF
      1  -1.68461078E+004                    5.47897645E-003     220.70  <-- SCF
      2  -1.68461080E+004                    4.22646354E-006     231.76  <-- SCF
      3  -1.68461080E+004                    4.57939001E-008     242.73  <-- SCF
      4  -1.68461080E+004                    9.78188815E-010     253.75  <-- SCF
      5  -1.68461080E+004                    2.36658584E-011     265.78  <-- SCF
------------------------------------------------------------------------ <-- SCF
 
Final energy =  -16846.10799413     eV
(energy not corrected for finite basis set)
 
 
 *********************************** Forces ***********************************
 *                                                                            *
 *                        Cartesian components (eV/A)                         *
 * -------------------------------------------------------------------------- *
 *                   x                    y                    z              *
 *                                                                            *
 * O         1     -0.05309             -0.01128              0.12011         *
 * O         2     -0.05548             -0.00935              0.12149         *
 * O         3      0.05309             -0.01128             -0.12011         *
 * O         4      0.05548             -0.00935             -0.12149         *
 * O         5      0.05309              0.01128             -0.12011         *
 * O         6      0.05548              0.00935             -0.12149         *
 * O         7     -0.05309              0.01128              0.12011         *
 * O         8     -0.05548              0.00935              0.12149         *
 * O         9     -0.07052              0.16414              0.09061         *
 * O        10     -0.07465              0.16294              0.09266         *
 * O        11      0.07052              0.16414             -0.09061         *
 * O        12      0.07465              0.16294             -0.09266         *
 * O        13      0.07052             -0.16414             -0.09061         *
 * O        14      0.07465             -0.16294             -0.09266         *
 * O        15     -0.07052             -0.16414              0.09061         *
 * O        16     -0.07465             -0.16294              0.09266         *
 * O        17      0.25395             -0.08214             -0.22538         *
 * O        18      0.24626             -0.08216             -0.22713         *
 * O        19     -0.25395             -0.08214              0.22538         *
 * O        20     -0.24626             -0.08216              0.22713         *
 * O        21     -0.25395              0.08214              0.22538         *
 * O        22     -0.24626              0.08216              0.22713         *
 * O        23      0.25395              0.08214             -0.22538         *
 * O        24      0.24626              0.08216             -0.22713         *
 * Na        1      0.00000              0.08313              0.00000         *
 * Na        2      0.00000              0.08430              0.00000         *
 * Na        3      0.00000             -0.08313              0.00000         *
 * Na        4      0.00000             -0.08430              0.00000         *
 * Al        1      0.00000              0.12889              0.00000         *
 * Al        2      0.00000              0.13274              0.00000         *
 * Al        3      0.00000             -0.12889              0.00000         *
 * Al        4      0.00000             -0.13274              0.00000         *
 * Si        1     -0.27167              0.15523              0.11244         *
 * Si        2     -0.28188              0.16083              0.10823         *
 * Si        3      0.27167              0.15523             -0.11244         *
 * Si        4      0.28188              0.16083             -0.10823         *
 * Si        5      0.27167             -0.15523             -0.11244         *
 * Si        6      0.28188             -0.16083             -0.10823         *
 * Si        7     -0.27167             -0.15523              0.11244         *
 * Si        8     -0.28188             -0.16083              0.10823         *
 *                                                                            *
 ******************************************************************************
 
 ***************** Stress Tensor *****************
 *                                               *
 *          Cartesian components (GPa)           *
 * --------------------------------------------- *
 *             x             y             z     *
 *                                               *
 *  x     -2.658187      0.000000      3.079863  *
 *  y      0.000000     -4.019358      0.000000  *
 *  z      3.079863      0.000000     -4.117414  *
 *                                               *
 *  Pressure:    3.5983                          *
 *                                               *
 *************************************************
  
 +------------+-------------+-------------+-----------------+ <-- min BFGS
 |    Step    |   lambda    |   F.delta   |    enthalpy     | <-- min BFGS
 +------------+-------------+-------------+-----------------+ <-- min BFGS
 |  previous  |    0.000000 |    0.004175 |   -16835.090286 | <-- min BFGS
 | trial step |    1.000000 |    0.002675 |   -16835.183717 | <-- min BFGS
 +------------+-------------+-------------+-----------------+ <-- min BFGS
  

--------------------------------------------------------------------------------
 BFGS: improving iteration         1 with line minimization (lambda=  2.783879)
--------------------------------------------------------------------------------
 
                           -------------------------------
                                      Unit Cell
                           -------------------------------
        Real Lattice(A)              Reciprocal Lattice(1/A)
   9.4542620   0.0000000  -0.0766478        0.6661933   0.0000000   0.1980642
   0.0000000   8.5931509   0.0000000        0.0000000   0.7311853   0.0000000
  -1.4874775   0.0000000   5.0031627        0.0102060   0.0000000   1.2588770
 
                       Lattice parameters(A)       Cell Angles
                    a =    9.454573          alpha =   90.000000
                    b =    8.593151          beta  =  107.022105
                    c =    5.219600          gamma =   90.000000
 
                Current cell volume =  405.486721 A**3
 
                           -------------------------------
                                     Cell Contents
                           -------------------------------
 
            xxxxxxxxxxxxxxxxxxxxxxxxxxxxxxxxxxxxxxxxxxxxxxxxxxxxxxxxxxxx
            x  Element    Atom        Fractional coordinates of atoms  x
            x            Number           u          v          w      x
            x----------------------------------------------------------x
            x  O            1         0.109591   0.075963   0.127748   x
            x  O            2         0.609716   0.575879   0.127700   x
            x  O            3         0.890409   0.075963   0.372252   x
            x  O            4         0.390284   0.575879   0.372300   x
            x  O            5         0.890409   0.924037   0.872252   x
            x  O            6         0.390284   0.424121   0.872300   x
            x  O            7         0.109591   0.924037   0.627748   x
            x  O            8         0.609716   0.424121   0.627700   x
            x  O            9         0.361634   0.261205   0.290608   x
            x  O           10         0.861669   0.761208   0.290519   x
            x  O           11         0.638366   0.261205   0.209392   x
            x  O           12         0.138331   0.761208   0.209481   x
            x  O           13         0.638366   0.738795   0.709392   x
            x  O           14         0.138331   0.238791   0.709481   x
            x  O           15         0.361634   0.738795   0.790608   x
            x  O           16         0.861669   0.238791   0.790519   x
            x  O           17         0.351538   0.004211   1.006331   x
            x  O           18         0.851753   0.504255   1.006315   x
            x  O           19         0.648462   0.004211   0.493669   x
            x  O           20         0.148247   0.504255   0.493685   x
            x  O           21         0.648462   0.995788  -0.006331   x
            x  O           22         0.148247   0.495744  -0.006315   x
            x  O           23         0.351538   0.995788   0.506331   x
            x  O           24         0.851753   0.495744   0.506315   x
            x  Na           1         0.000000   0.299419   0.250000   x
            x  Na           2         0.500000   0.799391   0.250000   x
            x  Na           3         0.000000   0.700580   0.750000   x
            x  Na           4         0.500000   0.200608   0.750000   x
            x  Al           1         0.000000   0.904382   0.250000   x
            x  Al           2         0.500000   0.404340   0.250000   x
            x  Al           3         0.000000   0.095617   0.750000   x
            x  Al           4         0.500000   0.595660   0.750000   x
            x  Si           1         0.289138   0.093375   0.227443   x
            x  Si           2         0.789279   0.593333   0.227433   x
            x  Si           3         0.710862   0.093375   0.272557   x
            x  Si           4         0.210721   0.593333   0.272567   x
            x  Si           5         0.710862   0.906624   0.772557   x
            x  Si           6         0.210721   0.406667   0.772567   x
            x  Si           7         0.289138   0.906624   0.727443   x
            x  Si           8         0.789279   0.406667   0.727433   x
            xxxxxxxxxxxxxxxxxxxxxxxxxxxxxxxxxxxxxxxxxxxxxxxxxxxxxxxxxxxx
 
 
------------------------------------------------------------------------ <-- SCF
SCF loop      Energy                           Energy gain       Timer   <-- SCF
                                               per atom          (sec)   <-- SCF
------------------------------------------------------------------------ <-- SCF
Initial  -1.68454383E+004                                        276.75  <-- SCF
      1  -1.68461311E+004                    1.73175883E-002     287.82  <-- SCF
      2  -1.68461316E+004                    1.33095344E-005     298.88  <-- SCF
      3  -1.68461316E+004                    1.41966148E-007     309.76  <-- SCF
      4  -1.68461316E+004                    2.99868081E-009     320.82  <-- SCF
      5  -1.68461316E+004                    7.21576664E-011     332.46  <-- SCF
------------------------------------------------------------------------ <-- SCF
 
Final energy =  -16846.13158954     eV
(energy not corrected for finite basis set)
 
 
 *********************************** Forces ***********************************
 *                                                                            *
 *                        Cartesian components (eV/A)                         *
 * -------------------------------------------------------------------------- *
 *                   x                    y                    z              *
 *                                                                            *
 * O         1     -0.37188             -0.01028             -0.01848         *
 * O         2     -0.37656             -0.00854             -0.01795         *
 * O         3      0.37188             -0.01028              0.01848         *
 * O         4      0.37656             -0.00854              0.01795         *
 * O         5      0.37188              0.01028              0.01848         *
 * O         6      0.37656              0.00854              0.01795         *
 * O         7     -0.37188              0.01028             -0.01848         *
 * O         8     -0.37656              0.00854             -0.01795         *
 * O         9     -0.02432              0.27825              0.07015         *
 * O        10     -0.02826              0.27846              0.07201         *
 * O        11      0.02432              0.27825             -0.07015         *
 * O        12      0.02826              0.27846             -0.07201         *
 * O        13      0.02432             -0.27825             -0.07015         *
 * O        14      0.02826             -0.27846             -0.07201         *
 * O        15     -0.02432             -0.27825              0.07015         *
 * O        16     -0.02826             -0.27846              0.07201         *
 * O        17      0.04803              0.16848              0.15053         *
 * O        18      0.03915              0.16820              0.14821         *
 * O        19     -0.04803              0.16848             -0.15053         *
 * O        20     -0.03915              0.16820             -0.14821         *
 * O        21     -0.04803             -0.16848             -0.15053         *
 * O        22     -0.03915             -0.16820             -0.14821         *
 * O        23      0.04803             -0.16848              0.15053         *
 * O        24      0.03915             -0.16820              0.14821         *
 * Na        1      0.00000              0.09239              0.00000         *
 * Na        2      0.00000              0.09319              0.00000         *
 * Na        3      0.00000             -0.09239              0.00000         *
 * Na        4      0.00000             -0.09319              0.00000         *
 * Al        1      0.00000              0.06127              0.00000         *
 * Al        2      0.00000              0.06464              0.00000         *
 * Al        3      0.00000             -0.06127              0.00000         *
 * Al        4      0.00000             -0.06464              0.00000         *
 * Si        1      0.27718             -0.07360             -0.09756         *
 * Si        2      0.27096             -0.07077             -0.10020         *
 * Si        3     -0.27718             -0.07360              0.09756         *
 * Si        4     -0.27096             -0.07077              0.10020         *
 * Si        5     -0.27718              0.07360              0.09756         *
 * Si        6     -0.27096              0.07077              0.10020         *
 * Si        7      0.27718              0.07360             -0.09756         *
 * Si        8      0.27096              0.07077             -0.10020         *
 *                                                                            *
 ******************************************************************************
 
 ***************** Stress Tensor *****************
 *                                               *
 *          Cartesian components (GPa)           *
 * --------------------------------------------- *
 *             x             y             z     *
 *                                               *
 *  x     -4.505617      0.000000      0.807371  *
 *  y      0.000000     -4.343136      0.000000  *
 *  z      0.807371      0.000000     -4.110138  *
 *                                               *
 *  Pressure:    4.3196                          *
 *                                               *
 *************************************************
  
 +------------+-------------+-------------+-----------------+ <-- min BFGS
 |    Step    |   lambda    |   F.delta   |    enthalpy     | <-- min BFGS
 +------------+-------------+-------------+-----------------+ <-- min BFGS
 |  previous  |    0.000000 |    0.004175 |   -16835.090286 | <-- min BFGS
 | trial step |    1.000000 |    0.002675 |   -16835.183717 | <-- min BFGS
 |  line step |    2.783879 |   -0.000011 |   -16835.248806 | <-- min BFGS
 +------------+-------------+-------------+-----------------+ <-- min BFGS
  
 BFGS: finished iteration     1 with enthalpy= -1.68352488E+004 eV
  
 +-----------+-----------------+-----------------+------------+-----+ <-- BFGS
 | Parameter |      value      |    tolerance    |    units   | OK? | <-- BFGS
 +-----------+-----------------+-----------------+------------+-----+ <-- BFGS
 |  dE/ion   |   3.962994E-003 |   2.000000E-007 |         eV | No  | <-- BFGS
 |  |F|max   |   3.770856E-001 |   1.000000E-003 |       eV/A | No  | <-- BFGS
 |  |dR|max  |   9.465814E-003 |   1.000000E-003 |          A | No  | <-- BFGS
 |   Smax    |   8.073710E-001 |   1.000000E-003 |        GPa | No  | <-- BFGS
 +-----------+-----------------+-----------------+------------+-----+ <-- BFGS
  

================================================================================
 Starting BFGS iteration          2 ...
================================================================================
 
Writing model to jadeite_4_30_GPa.check
  
 +------------+-------------+-------------+-----------------+ <-- min BFGS
 |    Step    |   lambda    |   F.delta   |    enthalpy     | <-- min BFGS
 +------------+-------------+-------------+-----------------+ <-- min BFGS
 |  previous  |    0.000000 |    0.000610 |   -16835.248806 | <-- min BFGS
 +------------+-------------+-------------+-----------------+ <-- min BFGS
  

--------------------------------------------------------------------------------
 BFGS: starting iteration         2 with trial guess (lambda=  1.000000)
--------------------------------------------------------------------------------
 
                           -------------------------------
                                      Unit Cell
                           -------------------------------
        Real Lattice(A)              Reciprocal Lattice(1/A)
   9.4531917   0.0000000  -0.0856304        0.6664630   0.0000000   0.1987248
   0.0000000   8.5930478   0.0000000        0.0000000   0.7311940   0.0000000
  -1.4920343   0.0000000   5.0038336        0.0114052   0.0000000   1.2590751
 
                       Lattice parameters(A)       Cell Angles
                    a =    9.453580          alpha =   90.000000
                    b =    8.593048          beta  =  107.122427
                    c =    5.221544          gamma =   90.000000
 
                Current cell volume =  405.372170 A**3
 
                           -------------------------------
                                     Cell Contents
                           -------------------------------
 
            xxxxxxxxxxxxxxxxxxxxxxxxxxxxxxxxxxxxxxxxxxxxxxxxxxxxxxxxxxxx
            x  Element    Atom        Fractional coordinates of atoms  x
            x            Number           u          v          w      x
            x----------------------------------------------------------x
            x  O            1         0.109413   0.075956   0.127760   x
            x  O            2         0.609536   0.575873   0.127713   x
            x  O            3         0.890587   0.075956   0.372240   x
            x  O            4         0.390464   0.575873   0.372287   x
            x  O            5         0.890587   0.924044   0.872240   x
            x  O            6         0.390464   0.424127   0.872287   x
            x  O            7         0.109413   0.924044   0.627760   x
            x  O            8         0.609536   0.424127   0.627713   x
            x  O            9         0.361627   0.261369   0.290690   x
            x  O           10         0.861660   0.761372   0.290603   x
            x  O           11         0.638373   0.261369   0.209310   x
            x  O           12         0.138340   0.761372   0.209397   x
            x  O           13         0.638373   0.738631   0.709310   x
            x  O           14         0.138340   0.238627   0.709397   x
            x  O           15         0.361627   0.738631   0.790690   x
            x  O           16         0.861660   0.238627   0.790603   x
            x  O           17         0.351602   0.004288   1.006415   x
            x  O           18         0.851812   0.504331   1.006397   x
            x  O           19         0.648398   0.004288   0.493585   x
            x  O           20         0.148188   0.504331   0.493603   x
            x  O           21         0.648398   0.995712  -0.006415   x
            x  O           22         0.148188   0.495668  -0.006397   x
            x  O           23         0.351602   0.995712   0.506415   x
            x  O           24         0.851812   0.495668   0.506397   x
            x  Na           1         0.000000   0.299477   0.250000   x
            x  Na           2         0.500000   0.799450   0.250000   x
            x  Na           3         0.000000   0.700522   0.750000   x
            x  Na           4         0.500000   0.200550   0.750000   x
            x  Al           1         0.000000   0.904430   0.250000   x
            x  Al           2         0.500000   0.404390   0.250000   x
            x  Al           3         0.000000   0.095570   0.750000   x
            x  Al           4         0.500000   0.595610   0.750000   x
            x  Si           1         0.289227   0.093357   0.227380   x
            x  Si           2         0.789364   0.593317   0.227367   x
            x  Si           3         0.710773   0.093357   0.272620   x
            x  Si           4         0.210636   0.593317   0.272633   x
            x  Si           5         0.710773   0.906642   0.772620   x
            x  Si           6         0.210636   0.406683   0.772633   x
            x  Si           7         0.289227   0.906642   0.727380   x
            x  Si           8         0.789364   0.406683   0.727367   x
            xxxxxxxxxxxxxxxxxxxxxxxxxxxxxxxxxxxxxxxxxxxxxxxxxxxxxxxxxxxx
 
 
------------------------------------------------------------------------ <-- SCF
SCF loop      Energy                           Energy gain       Timer   <-- SCF
                                               per atom          (sec)   <-- SCF
------------------------------------------------------------------------ <-- SCF
Initial  -1.68461015E+004                                        343.89  <-- SCF
      1  -1.68461438E+004                    1.05784141E-003     354.92  <-- SCF
      2  -1.68461439E+004                    5.36506093E-007     366.01  <-- SCF
      3  -1.68461439E+004                    3.61020350E-009     376.97  <-- SCF
      4  -1.68461439E+004                    7.90408736E-011     388.04  <-- SCF
------------------------------------------------------------------------ <-- SCF
 
Final energy =  -16846.14386873     eV
(energy not corrected for finite basis set)
 
 
 *********************************** Forces ***********************************
 *                                                                            *
 *                        Cartesian components (eV/A)                         *
 * -------------------------------------------------------------------------- *
 *                   x                    y                    z              *
 *                                                                            *
 * O         1     -0.30167              0.00386             -0.00545         *
 * O         2     -0.30678              0.00558             -0.00510         *
 * O         3      0.30167              0.00386              0.00545         *
 * O         4      0.30678              0.00558              0.00510         *
 * O         5      0.30167             -0.00386              0.00545         *
 * O         6      0.30678             -0.00558              0.00510         *
 * O         7     -0.30167             -0.00386             -0.00545         *
 * O         8     -0.30678             -0.00558             -0.00510         *
 * O         9     -0.03778              0.23279              0.06015         *
 * O        10     -0.04151              0.23320              0.06195         *
 * O        11      0.03778              0.23279             -0.06015         *
 * O        12      0.04151              0.23320             -0.06195         *
 * O        13      0.03778             -0.23279             -0.06015         *
 * O        14      0.04151             -0.23320             -0.06195         *
 * O        15     -0.03778             -0.23279              0.06015         *
 * O        16     -0.04151             -0.23320              0.06195         *
 * O        17      0.05117              0.16102              0.14755         *
 * O        18      0.04238              0.16073              0.14517         *
 * O        19     -0.05117              0.16102             -0.14755         *
 * O        20     -0.04238              0.16073             -0.14517         *
 * O        21     -0.05117             -0.16102             -0.14755         *
 * O        22     -0.04238             -0.16073             -0.14517         *
 * O        23      0.05117             -0.16102              0.14755         *
 * O        24      0.04238             -0.16073              0.14517         *
 * Na        1      0.00000              0.07927              0.00000         *
 * Na        2      0.00000              0.07999              0.00000         *
 * Na        3      0.00000             -0.07927              0.00000         *
 * Na        4      0.00000             -0.07999              0.00000         *
 * Al        1      0.00000              0.06913              0.00000         *
 * Al        2      0.00000              0.07227              0.00000         *
 * Al        3      0.00000             -0.06913              0.00000         *
 * Al        4      0.00000             -0.07227              0.00000         *
 * Si        1      0.23796             -0.04686             -0.09519         *
 * Si        2      0.23245             -0.04466             -0.09754         *
 * Si        3     -0.23796             -0.04686              0.09519         *
 * Si        4     -0.23245             -0.04466              0.09754         *
 * Si        5     -0.23796              0.04686              0.09519         *
 * Si        6     -0.23245              0.04466              0.09754         *
 * Si        7      0.23796              0.04686             -0.09519         *
 * Si        8      0.23245              0.04466             -0.09754         *
 *                                                                            *
 ******************************************************************************
 
 ***************** Stress Tensor *****************
 *                                               *
 *          Cartesian components (GPa)           *
 * --------------------------------------------- *
 *             x             y             z     *
 *                                               *
 *  x     -4.409610      0.000000      0.685672  *
 *  y      0.000000     -4.242468      0.000000  *
 *  z      0.685672      0.000000     -4.123905  *
 *                                               *
 *  Pressure:    4.2587                          *
 *                                               *
 *************************************************
  
 +------------+-------------+-------------+-----------------+ <-- min BFGS
 |    Step    |   lambda    |   F.delta   |    enthalpy     | <-- min BFGS
 +------------+-------------+-------------+-----------------+ <-- min BFGS
 |  previous  |    0.000000 |    0.000610 |   -16835.248806 | <-- min BFGS
 | trial step |    1.000000 |    0.000521 |   -16835.264235 | <-- min BFGS
 +------------+-------------+-------------+-----------------+ <-- min BFGS
  

--------------------------------------------------------------------------------
 BFGS: improving iteration         2 with line minimization (lambda=  6.884856)
--------------------------------------------------------------------------------
 
                           -------------------------------
                                      Unit Cell
                           -------------------------------
        Real Lattice(A)              Reciprocal Lattice(1/A)
   9.4468929   0.0000000  -0.1384918        0.6680765   0.0000000   0.2026263
   0.0000000   8.5924416   0.0000000        0.0000000   0.7312456   0.0000000
  -1.5188503   0.0000000   5.0077815        0.0184759   0.0000000   1.2602881
 
                       Lattice parameters(A)       Cell Angles
                    a =    9.447908          alpha =   90.000000
                    b =    8.592442          beta  =  107.712345
                    c =    5.233047          gamma =   90.000000
 
                Current cell volume =  404.683610 A**3
 
                           -------------------------------
                                     Cell Contents
                           -------------------------------
 
            xxxxxxxxxxxxxxxxxxxxxxxxxxxxxxxxxxxxxxxxxxxxxxxxxxxxxxxxxxxx
            x  Element    Atom        Fractional coordinates of atoms  x
            x            Number           u          v          w      x
            x----------------------------------------------------------x
            x  O            1         0.108366   0.075916   0.127828   x
            x  O            2         0.608475   0.575839   0.127786   x
            x  O            3         0.891634   0.075916   0.372172   x
            x  O            4         0.391525   0.575839   0.372214   x
            x  O            5         0.891634   0.924084   0.872172   x
            x  O            6         0.391525   0.424160   0.872214   x
            x  O            7         0.108366   0.924084   0.627828   x
            x  O            8         0.608475   0.424160   0.627786   x
            x  O            9         0.361587   0.262334   0.291172   x
            x  O           10         0.861607   0.762337   0.291097   x
            x  O           11         0.638413   0.262334   0.208828   x
            x  O           12         0.138393   0.762337   0.208903   x
            x  O           13         0.638413   0.737666   0.708828   x
            x  O           14         0.138393   0.237662   0.708903   x
            x  O           15         0.361587   0.737666   0.791172   x
            x  O           16         0.861607   0.237662   0.791097   x
            x  O           17         0.351977   0.004736   1.006910   x
            x  O           18         0.852156   0.504779   1.006877   x
            x  O           19         0.648023   0.004736   0.493090   x
            x  O           20         0.147844   0.504779   0.493123   x
            x  O           21         0.648023   0.995264  -0.006910   x
            x  O           22         0.147844   0.495221  -0.006877   x
            x  O           23         0.351977   0.995264   0.506910   x
            x  O           24         0.852156   0.495221   0.506877   x
            x  Na           1         0.000000   0.299818   0.250000   x
            x  Na           2         0.500000   0.799794   0.250000   x
            x  Na           3         0.000000   0.700181   0.750000   x
            x  Na           4         0.500000   0.200205   0.750000   x
            x  Al           1         0.000000   0.904710   0.250000   x
            x  Al           2         0.500000   0.404683   0.250000   x
            x  Al           3         0.000000   0.095289   0.750000   x
            x  Al           4         0.500000   0.595317   0.750000   x
            x  Si           1         0.289753   0.093253   0.227009   x
            x  Si           2         0.789863   0.593225   0.226977   x
            x  Si           3         0.710247   0.093253   0.272991   x
            x  Si           4         0.210137   0.593225   0.273023   x
            x  Si           5         0.710247   0.906747   0.772991   x
            x  Si           6         0.210137   0.406775   0.773023   x
            x  Si           7         0.289753   0.906747   0.727009   x
            x  Si           8         0.789863   0.406775   0.726977   x
            xxxxxxxxxxxxxxxxxxxxxxxxxxxxxxxxxxxxxxxxxxxxxxxxxxxxxxxxxxxx
 
 
------------------------------------------------------------------------ <-- SCF
SCF loop      Energy                           Energy gain       Timer   <-- SCF
                                               per atom          (sec)   <-- SCF
------------------------------------------------------------------------ <-- SCF
Initial  -1.68447127E+004                                        398.79  <-- SCF
      1  -1.68461661E+004                    3.63346934E-002     409.87  <-- SCF
      2  -1.68461668E+004                    1.84460334E-005     420.92  <-- SCF
      3  -1.68461668E+004                    1.23276849E-007     431.82  <-- SCF
      4  -1.68461668E+004                    2.68058383E-009     442.79  <-- SCF
      5  -1.68461668E+004                    7.38591334E-011     454.16  <-- SCF
------------------------------------------------------------------------ <-- SCF
 
Final energy =  -16846.16682693     eV
(energy not corrected for finite basis set)
 
 
 *********************************** Forces ***********************************
 *                                                                            *
 *                        Cartesian components (eV/A)                         *
 * -------------------------------------------------------------------------- *
 *                   x                    y                    z              *
 *                                                                            *
 * O         1      0.10936              0.08911              0.07111         *
 * O         2      0.10196              0.09078              0.07055         *
 * O         3     -0.10936              0.08911             -0.07111         *
 * O         4     -0.10196              0.09078             -0.07055         *
 * O         5     -0.10936             -0.08911             -0.07111         *
 * O         6     -0.10196             -0.09078             -0.07055         *
 * O         7      0.10936             -0.08911              0.07111         *
 * O         8      0.10196             -0.09078              0.07055         *
 * O         9     -0.11448             -0.03251              0.00027         *
 * O        10     -0.11699             -0.03090              0.00167         *
 * O        11      0.11448             -0.03251             -0.00027         *
 * O        12      0.11699             -0.03090             -0.00167         *
 * O        13      0.11448              0.03251             -0.00027         *
 * O        14      0.11699              0.03090             -0.00167         *
 * O        15     -0.11448              0.03251              0.00027         *
 * O        16     -0.11699              0.03090              0.00167         *
 * O        17      0.07104              0.11749              0.13019         *
 * O        18      0.06280              0.11709              0.12752         *
 * O        19     -0.07104              0.11749             -0.13019         *
 * O        20     -0.06280              0.11709             -0.12752         *
 * O        21     -0.07104             -0.11749             -0.13019         *
 * O        22     -0.06280             -0.11709             -0.12752         *
 * O        23      0.07104             -0.11749              0.13019         *
 * O        24      0.06280             -0.11709              0.12752         *
 * Na        1      0.00000              0.00170              0.00000         *
 * Na        2      0.00000              0.00187              0.00000         *
 * Na        3      0.00000             -0.00170              0.00000         *
 * Na        4      0.00000             -0.00187              0.00000         *
 * Al        1      0.00000              0.11376              0.00000         *
 * Al        2      0.00000              0.11560              0.00000         *
 * Al        3      0.00000             -0.11376              0.00000         *
 * Al        4      0.00000             -0.11560              0.00000         *
 * Si        1      0.01005              0.10835             -0.07902         *
 * Si        2      0.00834              0.10679             -0.07960         *
 * Si        3     -0.01005              0.10835              0.07902         *
 * Si        4     -0.00834              0.10679              0.07960         *
 * Si        5     -0.01005             -0.10835              0.07902         *
 * Si        6     -0.00834             -0.10679              0.07960         *
 * Si        7      0.01005             -0.10835             -0.07902         *
 * Si        8      0.00834             -0.10679             -0.07960         *
 *                                                                            *
 ******************************************************************************
 
 ***************** Stress Tensor *****************
 *                                               *
 *          Cartesian components (GPa)           *
 * --------------------------------------------- *
 *             x             y             z     *
 *                                               *
 *  x     -3.864467      0.000000     -0.064707  *
 *  y      0.000000     -3.665587      0.000000  *
 *  z     -0.064707      0.000000     -4.237441  *
 *                                               *
 *  Pressure:    3.9225                          *
 *                                               *
 *************************************************
  
 +------------+-------------+-------------+-----------------+ <-- min BFGS
 |    Step    |   lambda    |   F.delta   |    enthalpy     | <-- min BFGS
 +------------+-------------+-------------+-----------------+ <-- min BFGS
 |  previous  |    0.000000 |    0.000610 |   -16835.248806 | <-- min BFGS
 | trial step |    1.000000 |    0.000521 |   -16835.264235 | <-- min BFGS
 |  line step |    6.884856 |   -0.000004 |   -16835.305986 | <-- min BFGS
 +------------+-------------+-------------+-----------------+ <-- min BFGS
  
 BFGS: finished iteration     2 with enthalpy= -1.68353060E+004 eV
  
 +-----------+-----------------+-----------------+------------+-----+ <-- BFGS
 | Parameter |      value      |    tolerance    |    units   | OK? | <-- BFGS
 +-----------+-----------------+-----------------+------------+-----+ <-- BFGS
 |  dE/ion   |   1.429500E-003 |   2.000000E-007 |         eV | No  | <-- BFGS
 |  |F|max   |   1.892079E-001 |   1.000000E-003 |       eV/A | No  | <-- BFGS
 |  |dR|max  |   1.187700E-002 |   1.000000E-003 |          A | No  | <-- BFGS
 |   Smax    |   6.344133E-001 |   1.000000E-003 |        GPa | No  | <-- BFGS
 +-----------+-----------------+-----------------+------------+-----+ <-- BFGS
  

================================================================================
 Starting BFGS iteration          3 ...
================================================================================
 
Writing model to jadeite_4_30_GPa.check
  
 +------------+-------------+-------------+-----------------+ <-- min BFGS
 |    Step    |   lambda    |   F.delta   |    enthalpy     | <-- min BFGS
 +------------+-------------+-------------+-----------------+ <-- min BFGS
 |  previous  |    0.000000 |    0.000173 |   -16835.305986 | <-- min BFGS
 +------------+-------------+-------------+-----------------+ <-- min BFGS
  

--------------------------------------------------------------------------------
 BFGS: starting iteration         3 with trial guess (lambda=  1.000000)
--------------------------------------------------------------------------------
 
                           -------------------------------
                                      Unit Cell
                           -------------------------------
        Real Lattice(A)              Reciprocal Lattice(1/A)
   9.4436465   0.0000000  -0.1408227        0.6683589   0.0000000   0.2028104
   0.0000000   8.5887893   0.0000000        0.0000000   0.7315566   0.0000000
  -1.5195784   0.0000000   5.0077490        0.0187949   0.0000000   1.2603958
 
                       Lattice parameters(A)       Cell Angles
                    a =    9.444696          alpha =   90.000000
                    b =    8.588789          beta  =  107.734505
                    c =    5.233227          gamma =   90.000000
 
                Current cell volume =  404.338046 A**3
 
                           -------------------------------
                                     Cell Contents
                           -------------------------------
 
            xxxxxxxxxxxxxxxxxxxxxxxxxxxxxxxxxxxxxxxxxxxxxxxxxxxxxxxxxxxx
            x  Element    Atom        Fractional coordinates of atoms  x
            x            Number           u          v          w      x
            x----------------------------------------------------------x
            x  O            1         0.108386   0.075964   0.127901   x
            x  O            2         0.608491   0.575889   0.127858   x
            x  O            3         0.891614   0.075964   0.372099   x
            x  O            4         0.391509   0.575889   0.372142   x
            x  O            5         0.891614   0.924036   0.872099   x
            x  O            6         0.391509   0.424111   0.872142   x
            x  O            7         0.108386   0.924036   0.627901   x
            x  O            8         0.608491   0.424111   0.627858   x
            x  O            9         0.361527   0.262358   0.291196   x
            x  O           10         0.861546   0.762363   0.291124   x
            x  O           11         0.638473   0.262358   0.208804   x
            x  O           12         0.138454   0.762363   0.208876   x
            x  O           13         0.638473   0.737641   0.708804   x
            x  O           14         0.138454   0.237637   0.708876   x
            x  O           15         0.361527   0.737641   0.791196   x
            x  O           16         0.861546   0.237637   0.791124   x
            x  O           17         0.352049   0.004819   1.007050   x
            x  O           18         0.852222   0.504862   1.007014   x
            x  O           19         0.647951   0.004819   0.492950   x
            x  O           20         0.147778   0.504862   0.492986   x
            x  O           21         0.647951   0.995180  -0.007050   x
            x  O           22         0.147778   0.495138  -0.007014   x
            x  O           23         0.352049   0.995180   0.507050   x
            x  O           24         0.852222   0.495138   0.507014   x
            x  Na           1         0.000000   0.299835   0.250000   x
            x  Na           2         0.500000   0.799811   0.250000   x
            x  Na           3         0.000000   0.700165   0.750000   x
            x  Na           4         0.500000   0.200189   0.750000   x
            x  Al           1         0.000000   0.904787   0.250000   x
            x  Al           2         0.500000   0.404762   0.250000   x
            x  Al           3         0.000000   0.095212   0.750000   x
            x  Al           4         0.500000   0.595238   0.750000   x
            x  Si           1         0.289766   0.093311   0.226921   x
            x  Si           2         0.789874   0.593283   0.226887   x
            x  Si           3         0.710234   0.093311   0.273079   x
            x  Si           4         0.210126   0.593283   0.273113   x
            x  Si           5         0.710234   0.906689   0.773079   x
            x  Si           6         0.210126   0.406716   0.773113   x
            x  Si           7         0.289766   0.906689   0.726921   x
            x  Si           8         0.789874   0.406716   0.726887   x
            xxxxxxxxxxxxxxxxxxxxxxxxxxxxxxxxxxxxxxxxxxxxxxxxxxxxxxxxxxxx
 
 
------------------------------------------------------------------------ <-- SCF
SCF loop      Energy                           Energy gain       Timer   <-- SCF
                                               per atom          (sec)   <-- SCF
------------------------------------------------------------------------ <-- SCF
Initial  -1.68461475E+004                                        465.64  <-- SCF
      1  -1.68461617E+004                    3.56549629E-004     476.66  <-- SCF
      2  -1.68461617E+004                    3.43030354E-007     487.78  <-- SCF
      3  -1.68461617E+004                    3.09311223E-009     498.80  <-- SCF
      4  -1.68461617E+004                    6.81360173E-011     509.89  <-- SCF
------------------------------------------------------------------------ <-- SCF
 
Final energy =  -16846.16173766     eV
(energy not corrected for finite basis set)
 
 
 *********************************** Forces ***********************************
 *                                                                            *
 *                        Cartesian components (eV/A)                         *
 * -------------------------------------------------------------------------- *
 *                   x                    y                    z              *
 *                                                                            *
 * O         1      0.09019              0.08667              0.06254         *
 * O         2      0.08373              0.08840              0.06223         *
 * O         3     -0.09019              0.08667             -0.06254         *
 * O         4     -0.08373              0.08840             -0.06223         *
 * O         5     -0.09019             -0.08667             -0.06254         *
 * O         6     -0.08373             -0.08840             -0.06223         *
 * O         7      0.09019             -0.08667              0.06254         *
 * O         8      0.08373             -0.08840              0.06223         *
 * O         9     -0.09693              0.00271              0.00649         *
 * O        10     -0.09935              0.00387              0.00782         *
 * O        11      0.09693              0.00271             -0.00649         *
 * O        12      0.09935              0.00387             -0.00782         *
 * O        13      0.09693             -0.00271             -0.00649         *
 * O        14      0.09935             -0.00387             -0.00782         *
 * O        15     -0.09693             -0.00271              0.00649         *
 * O        16     -0.09935             -0.00387              0.00782         *
 * O        17      0.07560              0.09472              0.09516         *
 * O        18      0.06787              0.09438              0.09269         *
 * O        19     -0.07560              0.09472             -0.09516         *
 * O        20     -0.06787              0.09438             -0.09269         *
 * O        21     -0.07560             -0.09472             -0.09516         *
 * O        22     -0.06787             -0.09438             -0.09269         *
 * O        23      0.07560             -0.09472              0.09516         *
 * O        24      0.06787             -0.09438              0.09269         *
 * Na        1      0.00000              0.00344              0.00000         *
 * Na        2      0.00000              0.00366              0.00000         *
 * Na        3      0.00000             -0.00344              0.00000         *
 * Na        4      0.00000             -0.00366              0.00000         *
 * Al        1      0.00000              0.10742              0.00000         *
 * Al        2      0.00000              0.10908              0.00000         *
 * Al        3      0.00000             -0.10742              0.00000         *
 * Al        4      0.00000             -0.10908              0.00000         *
 * Si        1      0.01318              0.06885             -0.04344         *
 * Si        2      0.01065              0.06798             -0.04419         *
 * Si        3     -0.01318              0.06885              0.04344         *
 * Si        4     -0.01065              0.06798              0.04419         *
 * Si        5     -0.01318             -0.06885              0.04344         *
 * Si        6     -0.01065             -0.06798              0.04419         *
 * Si        7      0.01318             -0.06885             -0.04344         *
 * Si        8      0.01065             -0.06798             -0.04419         *
 *                                                                            *
 ******************************************************************************
 
 ***************** Stress Tensor *****************
 *                                               *
 *          Cartesian components (GPa)           *
 * --------------------------------------------- *
 *             x             y             z     *
 *                                               *
 *  x     -4.079446      0.000000     -0.110916  *
 *  y      0.000000     -3.884745      0.000000  *
 *  z     -0.110916      0.000000     -4.253506  *
 *                                               *
 *  Pressure:    4.0726                          *
 *                                               *
[...]
            x  O           20         0.145968   0.508466   0.494931   x
            x  O           21         0.645971   0.991530  -0.005059   x
            x  O           22         0.145968   0.491534  -0.005069   x
            x  O           23         0.354029   0.991530   0.505059   x
            x  O           24         0.854032   0.491534   0.505069   x
            x  Na           1         0.000000   0.301230   0.250000   x
            x  Na           2         0.500000   0.801234   0.250000   x
            x  Na           3         0.000000   0.698770   0.750000   x
            x  Na           4         0.500000   0.198765   0.750000   x
            x  Al           1         0.000000   0.906276   0.250000   x
            x  Al           2         0.500000   0.406276   0.250000   x
            x  Al           3         0.000000   0.093723   0.750000   x
            x  Al           4         0.500000   0.593723   0.750000   x
            x  Si           1         0.290869   0.093824   0.228100   x
            x  Si           2         0.790871   0.593823   0.228106   x
            x  Si           3         0.709131   0.093824   0.271900   x
            x  Si           4         0.209129   0.593823   0.271894   x
            x  Si           5         0.709131   0.906175   0.771900   x
            x  Si           6         0.209129   0.406176   0.771894   x
            x  Si           7         0.290869   0.906175   0.728100   x
            x  Si           8         0.790871   0.406176   0.728106   x
            xxxxxxxxxxxxxxxxxxxxxxxxxxxxxxxxxxxxxxxxxxxxxxxxxxxxxxxxxxxx
 
 
 BFGS: Final Enthalpy     = -1.68353439E+004 eV
 BFGS: Final <frequency>  =    1174.73582 cm-1
 BFGS: Final bulk modulus =     140.10544 GPa
 
 ***************************** Symmetrised Forces *****************************
 *                                                                            *
 *                        Cartesian components (eV/A)                         *
 * -------------------------------------------------------------------------- *
 *                   x                    y                    z              *
 *                                                                            *
 * O         1      0.00009              0.00024             -0.00005         *
 * O         2     -0.00001              0.00029             -0.00008         *
 * O         3     -0.00009              0.00024              0.00005         *
 * O         4      0.00001              0.00029              0.00008         *
 * O         5     -0.00009             -0.00024              0.00005         *
 * O         6      0.00001             -0.00029              0.00008         *
 * O         7      0.00009             -0.00024             -0.00005         *
 * O         8     -0.00001             -0.00029             -0.00008         *
 * O         9      0.00009              0.00032              0.00033         *
 * O        10      0.00012              0.00025              0.00037         *
 * O        11     -0.00009              0.00032             -0.00033         *
 * O        12     -0.00012              0.00025             -0.00037         *
 * O        13     -0.00009             -0.00032             -0.00033         *
 * O        14     -0.00012             -0.00025             -0.00037         *
 * O        15      0.00009             -0.00032              0.00033         *
 * O        16      0.00012             -0.00025              0.00037         *
 * O        17     -0.00052              0.00011              0.00003         *
 * O        18     -0.00061              0.00017             -0.00004         *
 * O        19      0.00052              0.00011             -0.00003         *
 * O        20      0.00061              0.00017              0.00004         *
 * O        21      0.00052             -0.00011             -0.00003         *
 * O        22      0.00061             -0.00017              0.00004         *
 * O        23     -0.00052             -0.00011              0.00003         *
 * O        24     -0.00061             -0.00017             -0.00004         *
 * Na        1      0.00000              0.00072              0.00000         *
 * Na        2      0.00000              0.00064              0.00000         *
 * Na        3      0.00000             -0.00072              0.00000         *
 * Na        4      0.00000             -0.00064              0.00000         *
 * Al        1      0.00000              0.00023              0.00000         *
 * Al        2      0.00000              0.00024              0.00000         *
 * Al        3      0.00000             -0.00023              0.00000         *
 * Al        4      0.00000             -0.00024              0.00000         *
 * Si        1     -0.00023             -0.00012              0.00006         *
 * Si        2     -0.00029              0.00001             -0.00001         *
 * Si        3      0.00023             -0.00012             -0.00006         *
 * Si        4      0.00029              0.00001              0.00001         *
 * Si        5      0.00023              0.00012             -0.00006         *
 * Si        6      0.00029             -0.00001              0.00001         *
 * Si        7     -0.00023              0.00012              0.00006         *
 * Si        8     -0.00029             -0.00001             -0.00001         *
 *                                                                            *
 ******************************************************************************
 
 *********** Symmetrised Stress Tensor ***********
 *                                               *
 *          Cartesian components (GPa)           *
 * --------------------------------------------- *
 *             x             y             z     *
 *                                               *
 *  x     -4.300320      0.000000     -0.000055  *
 *  y      0.000000     -4.300144      0.000000  *
 *  z     -0.000055      0.000000     -4.300666  *
 *                                               *
 *  Pressure:    4.3004                          *
 *                                               *
 *************************************************
 
 Pseudo atomic calculation performed for O 2s2 2p4
 
 Converged in 36 iterations to a total energy of -429.6485 eV
 
 
 Pseudo atomic calculation performed for Na 2s2 2p6 3s1
 
 Converged in 33 iterations to a total energy of -1302.8467 eV
 
 
 Pseudo atomic calculation performed for Al 3s2 3p1
 
 Converged in 20 iterations to a total energy of -52.7392 eV
 
 
 Pseudo atomic calculation performed for Si 3s2 3p2
 
 Converged in 21 iterations to a total energy of -101.9044 eV
 
Charge spilling parameter for spin component 1 = 0.85%
 
     Atomic Populations (Mulliken)
     -----------------------------
Species   Ion     s      p      d      f     Total  Charge (e)
==============================================================
  O        1     1.85   5.24   0.00   0.00   7.08    -1.08
  O        2     1.85   5.24   0.00   0.00   7.08    -1.08
  O        3     1.85   5.24   0.00   0.00   7.08    -1.08
  O        4     1.85   5.24   0.00   0.00   7.08    -1.08
  O        5     1.85   5.24   0.00   0.00   7.08    -1.08
  O        6     1.85   5.24   0.00   0.00   7.08    -1.08
  O        7     1.85   5.24   0.00   0.00   7.08    -1.08
  O        8     1.85   5.24   0.00   0.00   7.08    -1.08
  O        9     1.84   5.29   0.00   0.00   7.12    -1.12
  O       10     1.84   5.29   0.00   0.00   7.12    -1.12
  O       11     1.84   5.29   0.00   0.00   7.12    -1.12
  O       12     1.84   5.29   0.00   0.00   7.12    -1.12
  O       13     1.84   5.29   0.00   0.00   7.12    -1.12
  O       14     1.84   5.29   0.00   0.00   7.12    -1.12
  O       15     1.84   5.29   0.00   0.00   7.12    -1.12
  O       16     1.84   5.29   0.00   0.00   7.12    -1.12
  O       17     1.83   5.30   0.00   0.00   7.12    -1.12
  O       18     1.83   5.30   0.00   0.00   7.12    -1.12
  O       19     1.83   5.30   0.00   0.00   7.12    -1.12
  O       20     1.83   5.30   0.00   0.00   7.12    -1.12
  O       21     1.83   5.30   0.00   0.00   7.12    -1.12
  O       22     1.83   5.30   0.00   0.00   7.12    -1.12
  O       23     1.83   5.30   0.00   0.00   7.12    -1.12
  O       24     1.83   5.30   0.00   0.00   7.12    -1.12
  Na       1     2.04   5.77   0.00   0.00   7.81     1.19
  Na       2     2.04   5.77   0.00   0.00   7.81     1.19
  Na       3     2.04   5.77   0.00   0.00   7.81     1.19
  Na       4     2.04   5.77   0.00   0.00   7.81     1.19
  Al       1     0.51   0.92   0.00   0.00   1.42     1.58
  Al       2     0.51   0.92   0.00   0.00   1.42     1.58
  Al       3     0.51   0.92   0.00   0.00   1.42     1.58
  Al       4     0.51   0.92   0.00   0.00   1.42     1.58
  Si       1     0.69   1.36   0.00   0.00   2.05     1.95
  Si       2     0.69   1.36   0.00   0.00   2.05     1.95
  Si       3     0.69   1.36   0.00   0.00   2.05     1.95
  Si       4     0.69   1.36   0.00   0.00   2.05     1.95
  Si       5     0.69   1.36   0.00   0.00   2.05     1.95
  Si       6     0.69   1.36   0.00   0.00   2.05     1.95
  Si       7     0.69   1.36   0.00   0.00   2.05     1.95
  Si       8     0.69   1.36   0.00   0.00   2.05     1.95
==============================================================
 
     Bond                     Population      Length (A)
============================================================
   O 015 --   Si 007               0.76        1.59261
   O 009 --   Si 001               0.76        1.59261
   O 013 --   Si 005               0.76        1.59261
   O 011 --   Si 003               0.76        1.59261
   O 010 --   Si 002               0.76        1.59261
   O 012 --   Si 004               0.76        1.59261
   O 016 --   Si 008               0.76        1.59261
   O 014 --   Si 006               0.76        1.59261
   O 024 --   Si 008               0.56        1.63069
   O 020 --   Si 004               0.56        1.63069
   O 018 --   Si 002               0.56        1.63069
   O 022 --   Si 006               0.56        1.63069
   O 023 --   Si 007               0.56        1.63069
   O 021 --   Si 005               0.56        1.63069
   O 017 --   Si 001               0.56        1.63069
   O 019 --   Si 003               0.56        1.63069
   O 002 --   Si 002               0.59        1.63733
   O 008 --   Si 008               0.59        1.63733
   O 004 --   Si 004               0.59        1.63733
   O 006 --   Si 006               0.59        1.63733
   O 005 --   Si 005               0.59        1.63733
   O 003 --   Si 003               0.59        1.63733
   O 001 --   Si 001               0.59        1.63733
   O 007 --   Si 007               0.59        1.63733
   O 018 --   Si 008               0.58        1.64131
   O 020 --   Si 006               0.58        1.64131
   O 022 --   Si 004               0.58        1.64131
   O 024 --   Si 002               0.58        1.64131
   O 017 --   Si 007               0.58        1.64132
   O 021 --   Si 003               0.58        1.64132
   O 019 --   Si 005               0.58        1.64132
   O 023 --   Si 001               0.58        1.64132
   O 010 --   Al 001               0.42        1.85554
   O 012 --   Al 001               0.42        1.85554
   O 016 --   Al 003               0.42        1.85554
   O 014 --   Al 003               0.42        1.85554
   O 013 --   Al 004               0.42        1.85554
   O 011 --   Al 002               0.42        1.85554
   O 015 --   Al 004               0.42        1.85554
   O 009 --   Al 002               0.42        1.85554
   O 003 --   Al 003               0.32        1.94259
   O 007 --   Al 001               0.32        1.94259
   O 005 --   Al 001               0.32        1.94259
   O 001 --   Al 003               0.32        1.94259
   O 006 --   Al 002               0.32        1.94260
   O 004 --   Al 004               0.32        1.94260
   O 002 --   Al 004               0.32        1.94260
   O 008 --   Al 002               0.32        1.94260
   O 006 --   Al 004               0.31        1.99522
   O 004 --   Al 002               0.31        1.99522
   O 008 --   Al 004               0.31        1.99522
   O 002 --   Al 002               0.31        1.99522
   O 005 --   Al 003               0.31        1.99523
   O 007 --   Al 003               0.31        1.99523
   O 003 --   Al 001               0.31        1.99523
   O 001 --   Al 001               0.31        1.99523
   O 003 --   Na 001              -0.01        2.35208
   O 001 --   Na 001              -0.01        2.35208
   O 005 --   Na 003              -0.01        2.35208
   O 007 --   Na 003              -0.01        2.35208
   O 006 --   Na 004              -0.01        2.35212
   O 004 --   Na 002              -0.01        2.35212
   O 008 --   Na 004              -0.01        2.35212
   O 002 --   Na 002              -0.01        2.35212
   O 022 --   Na 003              -0.04        2.36960
   O 024 --   Na 003              -0.04        2.36960
   O 020 --   Na 001              -0.04        2.36960
   O 018 --   Na 001              -0.04        2.36960
   O 019 --   Na 002              -0.04        2.36963
   O 017 --   Na 002              -0.04        2.36963
   O 021 --   Na 004              -0.04        2.36963
   O 023 --   Na 004              -0.04        2.36963
   O 013 --   Na 002              -0.05        2.40564
   O 011 --   Na 004              -0.05        2.40564
   O 009 --   Na 004              -0.05        2.40564
   O 015 --   Na 002              -0.05        2.40564
   O 010 --   Na 003              -0.05        2.40564
   O 016 --   Na 001              -0.05        2.40564
   O 014 --   Na 001              -0.05        2.40564
   O 012 --   Na 003              -0.05        2.40564
   O 003 --    O 007              -0.10        2.47437
   O 001 --    O 005              -0.10        2.47437
   O 002 --    O 006              -0.10        2.47439
   O 004 --    O 008              -0.10        2.47439
   O 012 --    O 022              -0.10        2.58377
   O 010 --    O 024              -0.10        2.58377
   O 016 --    O 018              -0.10        2.58377
   O 014 --    O 020              -0.10        2.58377
   O 015 --    O 017              -0.10        2.58377
   O 013 --    O 019              -0.10        2.58377
   O 011 --    O 021              -0.10        2.58377
   O 009 --    O 023              -0.10        2.58377
   O 018 --    O 024              -0.17        2.61398
   O 020 --    O 022              -0.17        2.61398
   O 017 --    O 023              -0.17        2.61398
   O 019 --    O 021              -0.17        2.61398
   O 008 --    O 024              -0.09        2.64056
   O 002 --    O 018              -0.09        2.64056
   O 006 --    O 022              -0.09        2.64056
   O 004 --    O 020              -0.09        2.64056
   O 007 --    O 023              -0.09        2.64057
   O 005 --    O 021              -0.09        2.64057
   O 001 --    O 017              -0.09        2.64057
   O 003 --    O 019              -0.09        2.64057
   O 007 --    O 017              -0.08        2.64168
   O 005 --    O 019              -0.08        2.64168
   O 003 --    O 021              -0.08        2.64168
   O 001 --    O 023              -0.08        2.64168
   O 008 --    O 018              -0.08        2.64169
   O 002 --    O 024              -0.08        2.64169
   O 006 --    O 020              -0.08        2.64169
   O 004 --    O 022              -0.08        2.64169
   O 015 --    O 023              -0.08        2.64881
   O 013 --    O 021              -0.08        2.64881
   O 011 --    O 019              -0.08        2.64881
   O 009 --    O 017              -0.08        2.64881
   O 012 --    O 020              -0.08        2.64881
   O 010 --    O 018              -0.08        2.64881
   O 016 --    O 024              -0.08        2.64881
   O 014 --    O 022              -0.08        2.64881
   O 007 --    O 012              -0.07        2.68735
   O 001 --    O 014              -0.07        2.68735
   O 003 --    O 016              -0.07        2.68735
   O 005 --    O 010              -0.07        2.68735
   O 002 --    O 013              -0.07        2.68737
   O 004 --    O 015              -0.07        2.68737
   O 008 --    O 011              -0.07        2.68737
   O 006 --    O 009              -0.07        2.68737
   O 008 --    O 013              -0.05        2.71210
   O 006 --    O 015              -0.05        2.71210
   O 004 --    O 009              -0.05        2.71210
   O 002 --    O 011              -0.05        2.71210
   O 005 --    O 016              -0.05        2.71211
   O 007 --    O 014              -0.05        2.71211
   O 001 --    O 012              -0.05        2.71211
   O 003 --    O 010              -0.05        2.71211
   O 005 --    O 007              -0.05        2.71755
   O 001 --    O 003              -0.05        2.71755
   O 006 --    O 008              -0.05        2.71756
   O 002 --    O 004              -0.05        2.71756
   O 023 --   Na 002              -0.02        2.72308
   O 021 --   Na 002              -0.02        2.72308
   O 017 --   Na 004              -0.02        2.72308
   O 019 --   Na 004              -0.02        2.72308
   O 020 --   Na 003              -0.02        2.72314
   O 018 --   Na 003              -0.02        2.72314
   O 022 --   Na 001              -0.02        2.72314
   O 024 --   Na 001              -0.02        2.72314
   O 020 --    O 024              -0.04        2.76913
   O 018 --    O 022              -0.04        2.76913
   O 017 --    O 021              -0.04        2.76916
   O 019 --    O 023              -0.04        2.76916
   O 002 --    O 010              -0.06        2.77382
   O 008 --    O 016              -0.06        2.77382
   O 004 --    O 012              -0.06        2.77382
   O 006 --    O 014              -0.06        2.77382
   O 001 --    O 009              -0.06        2.77383
   O 007 --    O 015              -0.06        2.77383
   O 005 --    O 013              -0.06        2.77383
   O 003 --    O 011              -0.06        2.77383
   O 013 --    O 015              -0.05        2.79597
   O 009 --    O 011              -0.05        2.79597
   O 010 --    O 012              -0.05        2.79598
   O 014 --    O 016              -0.05        2.79598
   O 003 --    O 014              -0.04        2.81286
   O 001 --    O 016              -0.04        2.81286
   O 007 --    O 010              -0.04        2.81286
   O 005 --    O 012              -0.04        2.81286
   O 004 --    O 013              -0.04        2.81287
   O 006 --    O 011              -0.04        2.81287
   O 002 --    O 015              -0.04        2.81287
   O 008 --    O 009              -0.04        2.81287
   O 014 --    O 017              -0.03        2.90770
   O 012 --    O 023              -0.03        2.90770
   O 016 --    O 019              -0.03        2.90770
   O 010 --    O 021              -0.03        2.90770
   O 015 --    O 020              -0.03        2.90776
   O 009 --    O 022              -0.03        2.90776
   O 013 --    O 018              -0.03        2.90776
   O 011 --    O 024              -0.03        2.90776
   O 004 --    O 006              -0.06        2.92363
   O 002 --    O 008              -0.06        2.92363
   O 001 --    O 007              -0.06        2.92364
   O 003 --    O 005              -0.06        2.92364
============================================================
 
 
Writing model to jadeite_4_30_GPa.check
 
Writing analysis data to jadeite_4_30_GPa.castep_bin
Initialisation time =      1.90 s
Calculation time    =   3131.81 s
Finalisation time   =      0.75 s
Total time          =   3134.46 s
Peak Memory Use     = 235316 kB
